
     Program PWSCF v.6.2 (svn rev. 14038) starts on 26Aug2020 at 10:30:38 

     This program is part of the open-source Quantum ESPRESSO suite
     for quantum simulation of materials; please cite
         "P. Giannozzi et al., J. Phys.:Condens. Matter 21 395502 (2009);
         "P. Giannozzi et al., J. Phys.:Condens. Matter 29 465901 (2017);
          URL http://www.quantum-espresso.org", 
     in publications or presentations arising from this work. More details at
     http://www.quantum-espresso.org/quote

     Parallel version (MPI), running on    36 processors

     MPI processes distributed on     3 nodes
     R & G space division:  proc/nbgrp/npool/nimage =      36
     Waiting for input...
     Reading input from standard input

     Current dimensions of program PWSCF are:
     Max number of different atomic species (ntypx) = 10
     Max number of k-points (npk) =  40000
     Max angular momentum in pseudopotentials (lmaxx) =  3

     IMPORTANT: XC functional enforced from input :
     Exchange-correlation      = VDW-DF ( 1  4  4  0 1 0)
     Any further DFT definition will be discarded
     Please, verify this is what you really want

               file H.pbe-rrkjus.UPF: wavefunction(s)  1S renormalized
               file O.pbe-rrkjus.UPF: wavefunction(s)  2S renormalized

     Subspace diagonalization in iterative solution of the eigenvalue problem:
     a serial algorithm will be used

 
     Parallelization info
     --------------------
     sticks:   dense  smooth     PW     G-vecs:    dense   smooth      PW
     Min         239     119     32                76175    26926    3724
     Max         240     121     34                76193    26939    3733
     Sum        8605    4303   1159              2742755   969573  134209
 


     bravais-lattice index     =            0
     lattice parameter (alat)  =      16.1214  a.u.
     unit-cell volume          =   15442.9853 (a.u.)^3
     number of atoms/cell      =           65
     number of atomic types    =            3
     number of electrons       =       368.00
     number of Kohn-Sham states=          221
     kinetic-energy cutoff     =      60.0000  Ry
     charge density cutoff     =     480.0000  Ry
     convergence threshold     =      1.3E-04
     mixing beta               =       0.4000
     number of iterations used =            8  plain     mixing
     Exchange-correlation      = VDW-DF ( 1  4  4  0 1 0)

     celldm(1)=  16.121443  celldm(2)=   0.000000  celldm(3)=   0.000000
     celldm(4)=   0.000000  celldm(5)=   0.000000  celldm(6)=   0.000000

     crystal axes: (cart. coord. in units of alat)
               a(1) = (  -1.000000   0.000000   0.000000 )  
               a(2) = (   0.500000   0.866025   0.000000 )  
               a(3) = (   0.000000   0.000000  -4.255876 )  

     reciprocal axes: (cart. coord. in units 2 pi/alat)
               b(1) = ( -1.000000  0.577350  0.000000 )  
               b(2) = (  0.000000  1.154701  0.000000 )  
               b(3) = (  0.000000  0.000000 -0.234969 )  


     PseudoPot. # 1 for H  read from file:
     /home/svu/msev50/H.pbe-rrkjus.UPF
     MD5 check sum: 7cc9d459525c9a0585f487a71c3c9563
     Pseudo is Ultrasoft, Zval =  1.0
     Generated by new atomic code, or converted to UPF format
     Using radial grid of 1061 points,  2 beta functions with: 
                l(1) =   0
                l(2) =   0
     Q(r) pseudized with 0 coefficients 


     PseudoPot. # 2 for O  read from file:
     /home/svu/msev50/O.pbe-rrkjus.UPF
     MD5 check sum: 390ba29e75625707450f3bd3f0eb6be9
     Pseudo is Ultrasoft, Zval =  6.0
     Generated by new atomic code, or converted to UPF format
     Using radial grid of 1269 points,  4 beta functions with: 
                l(1) =   0
                l(2) =   0
                l(3) =   1
                l(4) =   1
     Q(r) pseudized with 0 coefficients 


     PseudoPot. # 3 for Pt read from file:
     /home/svu/msev50/Pt.pbe-nd-rrkjus.UPF
     MD5 check sum: 1413c21c79e416b56dc03f2d0e22670c
     Pseudo is Ultrasoft + core correction, Zval = 10.0
     Generated by new atomic code, or converted to UPF format
     Using radial grid of 1547 points,  3 beta functions with: 
                l(1) =   1
                l(2) =   2
                l(3) =   2
     Q(r) pseudized with 0 coefficients 


     vdW kernel table read from file vdW_kernel_table
     MD5 check sum: fa927d220c6be24106edb87711124ac3

     atomic species   valence    mass     pseudopotential
        H              1.00     1.00794     H ( 1.00)
        O              6.00    15.99940     O ( 1.00)
        Pt            10.00   195.08400     Pt( 1.00)

     Starting magnetic structure 
     atomic species   magnetization
        H            0.100
        O            0.100
        Pt           0.312

     No symmetry found


                                    s                        frac. trans.

      isym =  1     identity                                     

 cryst.   s( 1) = (     1          0          0      )
                  (     0          1          0      )
                  (     0          0          1      )

 cart.    s( 1) = (  1.0000000  0.0000000  0.0000000 )
                  (  0.0000000  1.0000000  0.0000000 )
                  (  0.0000000  0.0000000  1.0000000 )


   Cartesian axes

     site n.     atom                  positions (alat units)
         1           H   tau(   1) = (   0.4657850   0.8564905  -3.0436320  )
         2           H   tau(   2) = (   0.3876700   0.8559449  -3.2087174  )
         3           H   tau(   3) = (  -0.6003750   0.2691174  -3.1933111  )
         4           H   tau(   4) = (  -0.5023000   0.2605351  -3.0429936  )
         5           H   tau(   5) = (   0.0974000   0.1872347  -3.1812244  )
         6           H   tau(   6) = (   0.1090750   0.3680002  -3.2081216  )
         7           H   tau(   7) = (   0.1092950   0.7809557  -3.2478714  )
         8           H   tau(   8) = (  -0.3864450   0.0987182  -3.2502547  )
         9           H   tau(   9) = (   0.0280550   0.6918071  -3.0270766  )
        10           H   tau(  10) = (  -0.0967150   0.6206891  -3.1405808  )
        11           H   tau(  11) = (  -0.3882800   0.6631503  -3.1699464  )
        12           H   tau(  12) = (  -0.3397050   0.5776649  -2.9256591  )
        13           H   tau(  13) = (  -0.1499350   0.0045986  -2.8031324  )
        14           H   tau(  14) = (   0.0048350   0.1069108  -2.8004087  )
        15           H   tau(  15) = (  -0.4799550   0.3827053  -2.7969189  )
        16           H   tau(  16) = (  -0.6427300   0.2978261  -2.8057285  )
        17           H   tau(  17) = (   0.1291800   0.3099678  -2.9414058  )
        18           H   tau(  18) = (   0.0737550   0.3966483  -2.7892157  )
        19           H   tau(  19) = (  -0.4337950   0.0755434  -2.8148361  )
        20           H   tau(  20) = (   0.0675650   0.7669608  -2.7614674  )
        21           H   tau(  21) = (  -0.0580550   0.5616261  -2.5789329  )
        22           H   tau(  22) = (  -0.1585000   0.5810857  -2.7294632  )
        23           H   tau(  23) = (  -0.4118300   0.6774570  -2.7926630  )
        24           H   tau(  24) = (  -0.3718150   0.4805488  -3.1740746  )
        25           H   tau(  25) = (  -0.6698950   0.3890619  -3.4670916  )
        26           H   tau(  26) = (  -0.3286050   0.3841948  -3.4679428  )
        27           Pt  tau(  27) = (  -0.8333350   0.0962241  -4.1152189  )
        28           Pt  tau(  28) = (  -0.5000050   0.0962241  -4.1152189  )
        29           Pt  tau(  29) = (  -0.1666650   0.0962241  -4.1152189  )
        30           Pt  tau(  30) = (  -0.6666700   0.3848963  -4.1152189  )
        31           Pt  tau(  31) = (  -0.3333400   0.3848963  -4.1152189  )
        32           Pt  tau(  32) = (   0.0000000   0.3848963  -4.1152189  )
        33           Pt  tau(  33) = (  -0.5000000   0.6735772  -4.1152189  )
        34           Pt  tau(  34) = (  -0.1666700   0.6735772  -4.1152189  )
        35           Pt  tau(  35) = (   0.1666700   0.6735772  -4.1152189  )
        36           Pt  tau(  36) = (   0.0000000   0.1924482  -3.8430556  )
        37           Pt  tau(  37) = (  -0.6666700   0.1924482  -3.8430556  )
        38           Pt  tau(  38) = (  -0.3333300   0.1924482  -3.8430556  )
        39           Pt  tau(  39) = (   0.1666700   0.4811291  -3.8430556  )
        40           Pt  tau(  40) = (  -0.5000000   0.4811291  -3.8430556  )
        41           Pt  tau(  41) = (  -0.1666600   0.4811291  -3.8430556  )
        42           Pt  tau(  42) = (   0.3333350   0.7698013  -3.8430556  )
        43           Pt  tau(  43) = (  -0.3333350   0.7698013  -3.8430556  )
        44           Pt  tau(  44) = (   0.0000050   0.7698013  -3.8430556  )
        45           Pt  tau(  45) = (  -0.9983550   0.0004417  -3.5718712  )
        46           Pt  tau(  46) = (  -0.1684200   0.8643626  -3.5704242  )
        47           Pt  tau(  47) = (   0.1665100   0.8645012  -3.5649767  )
        48           Pt  tau(  48) = (   0.1625750   0.2866631  -3.5663386  )
        49           Pt  tau(  49) = (  -0.5008550   0.2855892  -3.5672749  )
        50           Pt  tau(  50) = (  -0.1616750   0.2876677  -3.5662535  )
        51           Pt  tau(  51) = (   0.3325000   0.5818825  -3.5670195  )
        52           Pt  tau(  52) = (  -0.3320400   0.5825926  -3.5663812  )
        53           Pt  tau(  53) = (  -0.0007900   0.5780720  -3.5717861  )
        54           O   tau(  54) = (   0.4891850   0.8537538  -3.1558168  )
        55           O   tau(  55) = (  -0.4921450   0.2641464  -3.1570936  )
        56           O   tau(  56) = (   0.1550350   0.2816574  -3.1503693  )
        57           O   tau(  57) = (  -0.3292850   0.0051182  -3.2866850  )
        58           O   tau(  58) = (   0.0157000   0.6373774  -3.1261960  )
        59           O   tau(  59) = (  -0.3231900   0.5756644  -3.1336437  )
        60           O   tau(  60) = (  -0.0364450   0.0016541  -2.8180280  )
        61           O   tau(  61) = (  -0.5298700   0.2822377  -2.8185813  )
        62           O   tau(  62) = (   0.1297150   0.3042953  -2.8259865  )
        63           O   tau(  63) = (   0.1210750   0.8421837  -2.8285826  )
        64           O   tau(  64) = (  -0.0493100   0.5773272  -2.6904794  )
        65           O   tau(  65) = (  -0.3504000   0.5824367  -2.8104100  )

   Crystallographic axes

     site n.     atom                  positions (cryst. coord.)
         1           H   tau(   1) = (  0.0287100  0.9889900  0.7151600  )
         2           H   tau(   2) = (  0.1065100  0.9883600  0.7539500  )
         3           H   tau(   3) = (  0.7557500  0.3107500  0.7503300  )
         4           H   tau(   4) = (  0.6527200  0.3008400  0.7150100  )
         5           H   tau(   5) = (  0.0107000  0.2162000  0.7474900  )
         6           H   tau(   6) = (  0.1033900  0.4249300  0.7538100  )
         7           H   tau(   7) = (  0.3415900  0.9017700  0.7631500  )
         8           H   tau(   8) = (  0.4434400  0.1139900  0.7637100  )
         9           H   tau(   9) = (  0.3713600  0.7988300  0.7112700  )
        10           H   tau(  10) = (  0.4550700  0.7167100  0.7379400  )
        11           H   tau(  11) = (  0.7711500  0.7657400  0.7448400  )
        12           H   tau(  12) = (  0.6732200  0.6670300  0.6874400  )
        13           H   tau(  13) = (  0.1525900  0.0053100  0.6586500  )
        14           H   tau(  14) = (  0.0568900  0.1234500  0.6580100  )
        15           H   tau(  15) = (  0.7009100  0.4419100  0.6571900  )
        16           H   tau(  16) = (  0.8146800  0.3439000  0.6592600  )
        17           H   tau(  17) = (  0.0497800  0.3579200  0.6911400  )
        18           H   tau(  18) = (  0.1552500  0.4580100  0.6553800  )
        19           H   tau(  19) = (  0.4774100  0.0872300  0.6614000  )
        20           H   tau(  20) = (  0.3752400  0.8856100  0.6488600  )
        21           H   tau(  21) = (  0.3823100  0.6485100  0.6059700  )
        22           H   tau(  22) = (  0.4939900  0.6709800  0.6413400  )
        23           H   tau(  23) = (  0.8029600  0.7822600  0.6561900  )
        24           H   tau(  24) = (  0.6492600  0.5548900  0.7458100  )
        25           H   tau(  25) = (  0.8945200  0.4492500  0.8146600  )
        26           H   tau(  26) = (  0.5504200  0.4436300  0.8148600  )
        27           Pt  tau(  27) = (  0.8888900  0.1111100  0.9669500  )
        28           Pt  tau(  28) = (  0.5555600  0.1111100  0.9669500  )
        29           Pt  tau(  29) = (  0.2222200  0.1111100  0.9669500  )
        30           Pt  tau(  30) = (  0.8888900  0.4444400  0.9669500  )
        31           Pt  tau(  31) = (  0.5555600  0.4444400  0.9669500  )
        32           Pt  tau(  32) = (  0.2222200  0.4444400  0.9669500  )
        33           Pt  tau(  33) = (  0.8888900  0.7777800  0.9669500  )
        34           Pt  tau(  34) = (  0.5555600  0.7777800  0.9669500  )
        35           Pt  tau(  35) = (  0.2222200  0.7777800  0.9669500  )
        36           Pt  tau(  36) = (  0.1111100  0.2222200  0.9030000  )
        37           Pt  tau(  37) = (  0.7777800  0.2222200  0.9030000  )
        38           Pt  tau(  38) = (  0.4444400  0.2222200  0.9030000  )
        39           Pt  tau(  39) = (  0.1111100  0.5555600  0.9030000  )
        40           Pt  tau(  40) = (  0.7777800  0.5555600  0.9030000  )
        41           Pt  tau(  41) = (  0.4444400  0.5555600  0.9030000  )
        42           Pt  tau(  42) = (  0.1111100  0.8888900  0.9030000  )
        43           Pt  tau(  43) = (  0.7777800  0.8888900  0.9030000  )
        44           Pt  tau(  44) = (  0.4444400  0.8888900  0.9030000  )
        45           Pt  tau(  45) = (  0.9986100  0.0005100  0.8392800  )
        46           Pt  tau(  46) = (  0.6674600  0.9980800  0.8389400  )
        47           Pt  tau(  47) = (  0.3326100  0.9982400  0.8376600  )
        48           Pt  tau(  48) = (  0.0029300  0.3310100  0.8379800  )
        49           Pt  tau(  49) = (  0.6657400  0.3297700  0.8382000  )
        50           Pt  tau(  50) = (  0.3277600  0.3321700  0.8379600  )
        51           Pt  tau(  51) = (  0.0034500  0.6719000  0.8381400  )
        52           Pt  tau(  52) = (  0.6684000  0.6727200  0.8379900  )
        53           Pt  tau(  53) = (  0.3345400  0.6675000  0.8392600  )
        54           O   tau(  54) = (  0.0037300  0.9858300  0.7415200  )
        55           O   tau(  55) = (  0.6446500  0.3050100  0.7418200  )
        56           O   tau(  56) = (  0.0075800  0.3252300  0.7402400  )
        57           O   tau(  57) = (  0.3322400  0.0059100  0.7722700  )
        58           O   tau(  58) = (  0.3522900  0.7359800  0.7345600  )
        59           O   tau(  59) = (  0.6555500  0.6647200  0.7363100  )
        60           O   tau(  60) = (  0.0374000  0.0019100  0.6621500  )
        61           O   tau(  61) = (  0.6928200  0.3259000  0.6622800  )
        62           O   tau(  62) = (  0.0459700  0.3513700  0.6640200  )
        63           O   tau(  63) = (  0.3651600  0.9724700  0.6646300  )
        64           O   tau(  64) = (  0.3826300  0.6666400  0.6321800  )
        65           O   tau(  65) = (  0.6866700  0.6725400  0.6603600  )

     number of k points=    40  Marzari-Vanderbilt smearing, width (Ry)=  0.0500
                       cart. coord. in units 2pi/alat
        k(    1) = (   0.0000000   0.0000000   0.0000000), wk =   0.0138889
        k(    2) = (   0.0000000   0.0000000   0.1174846), wk =   0.0138889
        k(    3) = (   0.0000000   0.1924501   0.0000000), wk =   0.0277778
        k(    4) = (   0.0000000   0.1924501   0.1174846), wk =   0.0277778
        k(    5) = (   0.0000000   0.3849002   0.0000000), wk =   0.0277778
        k(    6) = (   0.0000000   0.3849002   0.1174846), wk =   0.0277778
        k(    7) = (   0.0000000  -0.5773503   0.0000000), wk =   0.0138889
        k(    8) = (   0.0000000  -0.5773503   0.1174846), wk =   0.0138889
        k(    9) = (  -0.1666667   0.2886751   0.0000000), wk =   0.0277778
        k(   10) = (  -0.1666667   0.2886751   0.1174846), wk =   0.0277778
        k(   11) = (  -0.1666667   0.4811252   0.0000000), wk =   0.0277778
        k(   12) = (  -0.1666667   0.4811252   0.1174846), wk =   0.0277778
        k(   13) = (  -0.3333333   0.5773503   0.0000000), wk =   0.0277778
        k(   14) = (  -0.3333333   0.5773503   0.1174846), wk =   0.0277778
        k(   15) = (  -0.1666667   0.0962250   0.0000000), wk =   0.0277778
        k(   16) = (   0.1666667   0.0962250   0.0000000), wk =   0.0277778
        k(   17) = (  -0.1666667   0.0962250   0.1174846), wk =   0.0277778
        k(   18) = (   0.1666667   0.0962250   0.1174846), wk =   0.0277778
        k(   19) = (  -0.3333333   0.1924501   0.0000000), wk =   0.0277778
        k(   20) = (   0.3333333   0.1924501   0.0000000), wk =   0.0277778
        k(   21) = (  -0.3333333   0.1924501   0.1174846), wk =   0.0277778
        k(   22) = (   0.3333333   0.1924501   0.1174846), wk =   0.0277778
        k(   23) = (   0.5000000  -0.2886751   0.0000000), wk =   0.0138889
        k(   24) = (  -0.5000000  -0.2886751   0.0000000), wk =   0.0138889
        k(   25) = (   0.5000000  -0.2886751   0.1174846), wk =   0.0138889
        k(   26) = (  -0.5000000  -0.2886751   0.1174846), wk =   0.0138889
        k(   27) = (   0.1666667   0.2886751   0.0000000), wk =   0.0277778
        k(   28) = (  -0.3333333   0.0000000   0.0000000), wk =   0.0277778
        k(   29) = (   0.1666667   0.2886751  -0.1174846), wk =   0.0277778
        k(   30) = (  -0.3333333   0.0000000   0.1174846), wk =   0.0277778
        k(   31) = (   0.1666667   0.4811252   0.0000000), wk =   0.0277778
        k(   32) = (  -0.5000000   0.0962250   0.0000000), wk =   0.0277778
        k(   33) = (   0.3333333   0.3849002   0.0000000), wk =   0.0277778
        k(   34) = (  -0.5000000  -0.0962250   0.0000000), wk =   0.0277778
        k(   35) = (   0.3333333  -0.3849002   0.0000000), wk =   0.0277778
        k(   36) = (   0.1666667   0.4811252  -0.1174846), wk =   0.0277778
        k(   37) = (  -0.5000000   0.0962250   0.1174846), wk =   0.0277778
        k(   38) = (   0.3333333   0.3849002   0.1174846), wk =   0.0277778
        k(   39) = (  -0.5000000  -0.0962250  -0.1174846), wk =   0.0277778
        k(   40) = (   0.3333333  -0.3849002  -0.1174846), wk =   0.0277778

                       cryst. coord.
        k(    1) = (   0.0000000   0.0000000   0.0000000), wk =   0.0138889
        k(    2) = (   0.0000000   0.0000000  -0.5000000), wk =   0.0138889
        k(    3) = (   0.0000000   0.1666667   0.0000000), wk =   0.0277778
        k(    4) = (   0.0000000   0.1666667  -0.5000000), wk =   0.0277778
        k(    5) = (   0.0000000   0.3333333   0.0000000), wk =   0.0277778
        k(    6) = (   0.0000000   0.3333333  -0.5000000), wk =   0.0277778
        k(    7) = (   0.0000000  -0.5000000   0.0000000), wk =   0.0138889
        k(    8) = (   0.0000000  -0.5000000  -0.5000000), wk =   0.0138889
        k(    9) = (   0.1666667   0.1666667   0.0000000), wk =   0.0277778
        k(   10) = (   0.1666667   0.1666667  -0.5000000), wk =   0.0277778
        k(   11) = (   0.1666667   0.3333333   0.0000000), wk =   0.0277778
        k(   12) = (   0.1666667   0.3333333  -0.5000000), wk =   0.0277778
        k(   13) = (   0.3333333   0.3333333   0.0000000), wk =   0.0277778
        k(   14) = (   0.3333333   0.3333333  -0.5000000), wk =   0.0277778
        k(   15) = (   0.1666667   0.0000000   0.0000000), wk =   0.0277778
        k(   16) = (  -0.1666667   0.1666667   0.0000000), wk =   0.0277778
        k(   17) = (   0.1666667   0.0000000  -0.5000000), wk =   0.0277778
        k(   18) = (  -0.1666667   0.1666667  -0.5000000), wk =   0.0277778
        k(   19) = (   0.3333333   0.0000000   0.0000000), wk =   0.0277778
        k(   20) = (  -0.3333333   0.3333333   0.0000000), wk =   0.0277778
        k(   21) = (   0.3333333   0.0000000  -0.5000000), wk =   0.0277778
        k(   22) = (  -0.3333333   0.3333333  -0.5000000), wk =   0.0277778
        k(   23) = (  -0.5000000   0.0000000   0.0000000), wk =   0.0138889
        k(   24) = (   0.5000000  -0.5000000   0.0000000), wk =   0.0138889
        k(   25) = (  -0.5000000   0.0000000  -0.5000000), wk =   0.0138889
        k(   26) = (   0.5000000  -0.5000000  -0.5000000), wk =   0.0138889
        k(   27) = (  -0.1666667   0.3333333   0.0000000), wk =   0.0277778
        k(   28) = (   0.3333333  -0.1666667   0.0000000), wk =   0.0277778
        k(   29) = (  -0.1666667   0.3333333   0.5000000), wk =   0.0277778
        k(   30) = (   0.3333333  -0.1666667  -0.5000000), wk =   0.0277778
        k(   31) = (  -0.1666667   0.5000000   0.0000000), wk =   0.0277778
        k(   32) = (   0.5000000  -0.1666667   0.0000000), wk =   0.0277778
        k(   33) = (  -0.3333333   0.5000000   0.0000000), wk =   0.0277778
        k(   34) = (   0.5000000  -0.3333333   0.0000000), wk =   0.0277778
        k(   35) = (  -0.3333333  -0.1666667   0.0000000), wk =   0.0277778
        k(   36) = (  -0.1666667   0.5000000   0.5000000), wk =   0.0277778
        k(   37) = (   0.5000000  -0.1666667  -0.5000000), wk =   0.0277778
        k(   38) = (  -0.3333333   0.5000000  -0.5000000), wk =   0.0277778
        k(   39) = (   0.5000000  -0.3333333   0.5000000), wk =   0.0277778
        k(   40) = (  -0.3333333  -0.1666667   0.5000000), wk =   0.0277778

     Dense  grid:  2742755 G-vectors     FFT dimensions: ( 120, 120, 480)

     Smooth grid:   969573 G-vectors     FFT dimensions: (  80,  80, 360)

     Dynamical RAM for                 wfc:      11.35 MB

     Dynamical RAM for     wfc (w. buffer):     919.41 MB

     Dynamical RAM for           str. fact:       3.49 MB

     Dynamical RAM for           local pot:       0.00 MB

     Dynamical RAM for          nlocal pot:      25.63 MB

     Dynamical RAM for                qrad:       6.44 MB

     Dynamical RAM for          rho,v,vnew:      16.20 MB

     Dynamical RAM for               rhoin:       5.40 MB

     Dynamical RAM for            rho*nmix:      37.20 MB

     Dynamical RAM for           G-vectors:       4.57 MB

     Dynamical RAM for          h,s,v(r/c):      35.77 MB

     Dynamical RAM for          <psi|beta>:       1.68 MB

     Dynamical RAM for                 psi:      45.40 MB

     Dynamical RAM for                hpsi:      45.40 MB

     Dynamical RAM for                spsi:      45.40 MB

     Dynamical RAM for      wfcinit/wfcrot:      25.52 MB

     Dynamical RAM for           addusdens:     155.79 MB

     Dynamical RAM for          addusforce:     349.05 MB

     Estimated static dynamical RAM per process >       1.01 GB

     Estimated max dynamical RAM per process >       1.35 GB

     Estimated total dynamical RAM >      48.56 GB
     Generating pointlists ...
     new r_m :   0.0466 (alat units)  0.7514 (a.u.) for type    1
     new r_m :   0.0466 (alat units)  0.7514 (a.u.) for type    2
     new r_m :   0.0893 (alat units)  1.4394 (a.u.) for type    3

     Check: negative/imaginary core charge=   -0.000011    0.000000

     Initial potential from superposition of free atoms
     Check: negative starting charge=(component1):   -0.000200
     Check: negative starting charge=(component2):   -0.000160

     starting charge  365.49464, renormalised to  368.00000

     negative rho (up, down):  2.012E-04 1.615E-04


     %%%%%%%%%%%%%%%%%%%%%%%%%%%%%%%%%%%%%%%%%%%%%%%%%%%%%%%%%%%%%%%%%%%%%%%%
     %                                                                      %
     % You are using vdW-DF, which was implemented by the Thonhauser group. %
     % Please cite the following two papers that made this development      %
     % possible and the two reviews that describe the various versions:     %
     %                                                                      %
     %   T. Thonhauser et al., PRL 115, 136402 (2015).                      %
     %   T. Thonhauser et al., PRB 76, 125112 (2007).                       %
     %   K. Berland et al., Rep. Prog. Phys. 78, 066501 (2015).             %
     %   D.C. Langreth et al., J. Phys.: Condens. Matter 21, 084203 (2009). %
     %                                                                      %
     %                                                                      %
     % If you are calculating the stress with vdW-DF, please also cite:     %
     %                                                                      %
     %   R. Sabatini et al., J. Phys.: Condens. Matter 24, 424209 (2012).   %
     %                                                                      %
     %%%%%%%%%%%%%%%%%%%%%%%%%%%%%%%%%%%%%%%%%%%%%%%%%%%%%%%%%%%%%%%%%%%%%%%%


     Carrying out vdW-DF run using the following parameters:
     Nqs    =  20  Npoints =  1024  r_max =  100.000
     q_mesh =  0.00001000  0.04494208  0.09755937  0.15916263
               0.23128650  0.31572767  0.41458969  0.53033537
               0.66584808  0.82450364  1.01025438  1.22772762
               1.48234092  1.78043706  2.12944203  2.53805004
               3.01644009  3.57652955  4.23227104  5.00000000


     -----------------------------------------------
     Non-local corr. energy    =      11.15102106 Ry
     -----------------------------------------------

     Starting wfc are  236 randomized atomic wfcs
                                                                                                                                                                                                                                                                                                                                                                                                                                                                                                                                                                                                                                                                                                                                                                                                                                                                                                                                                                                                                                                                                                                                                                                                                                                                                                                                                                                                                                                                                                                                                                                                                                                                                                                                                                                                                                                                                                                                                                                                                                                                                                                                                                                                                                                                                                                                                                                                                                                                                                                                                                                                                                                                                                                                                                                                                                                                                                                                                                                                                                                                                                                                                                                                                                                                                                                                                                                                                                                                                                                                                                                                                                                                                                                                                                                                                                                                                                                                                                                                                                                                                                                                                                                                                                                                                                                                                                                                                                                                                                                                                                                                                                                                                                                                                                                                                                                                                                                                                                                                                                                                                                                                                                                                                                                                                                                                                                                                                                                                                                                                                                                                                                                                                                                                                                                                                                                                                                                                                                                                                                                                                                                                                                                                                                                                                                                                                                                                                                                                                                                                                                                                                                                                                                                                                                                                                                                                                                                                                                                                                                                                                                                                                                                                                                                                                                                                                                                                                       r mag/cell
     absolute magnetization    =     1.17 Bohr mag/cell

     iteration # 11     ecut=    60.00 Ry     beta= 0.40
     Davidson diagonalization with overlap
     c_bands:  1 eigenvalues not converged
     c_bands:  1 eigenvalues not converged
     ethr =  1.00E-02,  avg # of iterations = 19.4

     negative rho (up, down):  5.152E-04 1.337E-02


     -----------------------------------------------
     Non-local corr. energy    =      10.72369706 Ry
     -----------------------------------------------


     total cpu time spent up to now is    49227.1 secs

     total energy              =   -4298.00628129 Ry
     Harris-Foulkes estimate   =  -15686.36325356 Ry
     estimated scf accuracy    <   59795.16726411 Ry

     total magnetization       =     0.23 Bohr mag/cell
     absolute magnetization    =     0.53 Bohr mag/cell

     iteration # 12     ecut=    60.00 Ry     beta= 0.40
     Davidson diagonalization with overlap
     ethr =  1.00E-02,  avg # of iterations =  9.0

     negative rho (up, down):  1.470E-04 1.565E-04


     -----------------------------------------------
     Non-local corr. energy    =      10.70946682 Ry
     -----------------------------------------------


     total cpu time spent up to now is    52656.5 secs

     total energy              =   -2928.14094120 Ry
     Harris-Foulkes estimate   =   -4893.47750608 Ry
     estimated scf accuracy    <   32939.69388031 Ry

     total magnetization       =     0.42 Bohr mag/cell
     absolute magnetization    =     0.52 Bohr mag/cell

     iteration # 13     ecut=    60.00 Ry     beta= 0.40
     Davidson diagonalization with overlap
     ethr =  1.00E-02,  avg # of iterations = 10.1

     negative rho (up, down):  5.637E-05 6.091E-05


     -----------------------------------------------
     Non-local corr. energy    =      10.55368820 Ry
     -----------------------------------------------


     total cpu time spent up to now is    55414.7 secs

     total energy              =   -2538.79587019 Ry
     Harris-Foulkes estimate   =   -3127.38959406 Ry
     estimated scf accuracy    <   15961.00631010 Ry

     total magnetization       =     2.84 Bohr mag/cell
     absolute magnetization    =     3.26 Bohr mag/cell

     iteration # 14     ecut=    60.00 Ry     beta= 0.40
     Davidson diagonalization with overlap
     ethr =  1.00E-02,  avg # of iterations = 10.8

     negative rho (up, down):  6.646E-06 7.202E-06


     -----------------------------------------------
     Non-local corr. energy    =      10.54685702 Ry
     -----------------------------------------------


     total cpu time spent up to now is    58864.2 secs

     total energy              =   -2944.27555229 Ry
     Harris-Foulkes estimate   =   -2934.37413066 Ry
     estimated scf accuracy    <    1207.90659648 Ry

     total magnetization       =     1.54 Bohr mag/cell
     absolute magnetization    =     1.64 Bohr mag/cell

     iteration # 15     ecut=    60.00 Ry     beta= 0.40
     Davidson diagonalization with overlap
     ethr =  1.00E-02,  avg # of iterations =  1.6

     negative rho (up, down):  2.613E-06 3.808E-06


     -----------------------------------------------
     Non-local corr. energy    =      10.56392257 Ry
     -----------------------------------------------


     total cpu time spent up to now is    59695.5 secs

     total energy              =   -2894.33559841 Ry
     Harris-Foulkes estimate   =   -2946.88957973 Ry
     estimated scf accuracy    <    1344.20306434 Ry

     total magnetization       =     1.45 Bohr mag/cell
     absolute magnetization    =     1.48 Bohr mag/cell

     iteration # 16     ecut=    60.00 Ry     beta= 0.40
     Davidson diagonalization with overlap
     ethr =  1.00E-02,  avg # of iterations =  2.3

     negative rho (up, down):  7.427E-06 1.098E-05


     -----------------------------------------------
     Non-local corr. energy    =      10.55613605 Ry
     -----------------------------------------------


     total cpu time spent up to now is    60545.4 secs

     total energy              =   -2924.72438303 Ry
     Harris-Foulkes estimate   =   -2906.12442175 Ry
     estimated scf accuracy    <     858.96106525 Ry

     total magnetization       =     4.67 Bohr mag/cell
     absolute magnetization    =     4.78 Bohr mag/cell

     iteration # 17     ecut=    60.00 Ry     beta= 0.40
     Davidson diagonalization with overlap
     ethr =  1.00E-02,  avg # of iterations =  1.8

     negative rho (up, down):  6.274E-01 6.795E-01


     -----------------------------------------------
     Non-local corr. energy    =      10.90478150 Ry
     -----------------------------------------------


     total cpu time spent up to now is    61372.7 secs

     total energy              =   -2571.92787855 Ry
     Harris-Foulkes estimate   =   -2933.16260689 Ry
     estimated scf accuracy    <    1278.33562418 Ry

     total magnetization       =     1.48 Bohr mag/cell
     absolute magnetization    =     1.51 Bohr mag/cell

     iteration # 18     ecut=    60.00 Ry     beta= 0.40
     Davidson diagonalization with overlap
     ethr =  1.00E-02,  avg # of iterations = 10.0

     negative rho (up, down):  4.327E-01 4.843E-01


     -----------------------------------------------
     Non-local corr. energy    =      10.95064981 Ry
     -----------------------------------------------


     total cpu time spent up to now is    65127.4 secs

     total energy              =   -3765.61585694 Ry
     Harris-Foulkes estimate   =   -4035.96773710 Ry
     estimated scf accuracy    <   30125.87954060 Ry

     total magnetization       =     0.36 Bohr mag/cell
     absolute magnetization    =     0.62 Bohr mag/cell

     iteration # 19     ecut=    60.00 Ry     beta= 0.40
     Davidson diagonalization with overlap
     ethr =  1.00E-02,  avg # of iterations =  2.0

     negative rho (up, down):  3.696E-01 4.168E-01


     -----------------------------------------------
     Non-local corr. energy    =      10.96424286 Ry
     -----------------------------------------------


     total cpu time spent up to now is    66032.2 secs

     total energy              =   -3715.63217792 Ry
     Harris-Foulkes estimate   =   -3770.71142200 Ry
     estimated scf accuracy    <   29246.43474673 Ry

     total magnetization       =     0.13 Bohr mag/cell
     absolute magnetization    =     0.54 Bohr mag/cell

     iteration # 20     ecut=    60.00 Ry     beta= 0.40
     Davidson diagonalization with overlap
     ethr =  1.00E-02,  avg # of iterations =  1.0

     negative rho (up, down):  1.074E+00 1.083E+00


     -----------------------------------------------
     Non-local corr. energy    =      11.24229155 Ry
     -----------------------------------------------


     total cpu time spent up to now is    66833.4 secs

     total energy              =   -2046.02786527 Ry
     Harris-Foulkes estimate   =   -3716.98628914 Ry
     estimated scf accuracy    <   29009.89165988 Ry

     total magnetization       =     0.19 Bohr mag/cell
     absolute magnetization    =     0.47 Bohr mag/cell

     iteration # 21     ecut=    60.00 Ry     beta= 0.40
     Davidson diagonalization with overlap
     ethr =  1.00E-02,  avg # of iterations = 11.0

     negative rho (up, down):  3.533E+00 3.391E+00


     -----------------------------------------------
     Non-local corr. energy    =      11.37544167 Ry
     -----------------------------------------------


     total cpu time spent up to now is    70773.3 secs

     total energy              =   -2854.69340981 Ry
     Harris-Foulkes estimate   =   -2873.05115484 Ry
     estimated scf accuracy    <     817.46904352 Ry

     total magnetization       =     0.63 Bohr mag/cell
     absolute magnetization    =     1.10 Bohr mag/cell

     iteration # 22     ecut=    60.00 Ry     beta= 0.40
     Davidson diagonalization with overlap
     ethr =  1.00E-02,  avg # of iterations =  4.3

     negative rho (up, down):  2.170E+00 2.261E+00


     -----------------------------------------------
     Non-local corr. energy    =      10.89237111 Ry
     -----------------------------------------------


     total cpu time spent up to now is    72138.5 secs

     total energy              =   -2619.79813391 Ry
     Harris-Foulkes estimate   =   -2883.12766222 Ry
     estimated scf accuracy    <     838.28055288 Ry

     total magnetization       =    -1.29 Bohr mag/cell
     absolute magnetization    =     1.94 Bohr mag/cell

     iteration # 23     ecut=    60.00 Ry     beta= 0.40
     Davidson diagonalization with overlap
     ethr =  1.00E-02,  avg # of iterations =  8.1

     negative rho (up, down):  5.096E-01 5.454E-01


     -----------------------------------------------
     Non-local corr. energy    =      10.88846413 Ry
     -----------------------------------------------


     total cpu time spent up to now is    75503.6 secs

     total energy              =   -2603.95219063 Ry
     Harris-Foulkes estimate   =   -2979.78302343 Ry
     estimated scf accuracy    <    7768.59536965 Ry

     total magnetization       =     2.48 Bohr mag/cell
     absolute magnetization    =     2.69 Bohr mag/cell

     iteration # 24     ecut=    60.00 Ry     beta= 0.40
     Davidson diagonalization with overlap
     ethr =  1.00E-02,  avg # of iterations =  7.0

     negative rho (up, down):  6.436E-01 6.815E-01


     -----------------------------------------------
     Non-local corr. energy    =      10.91898925 Ry
     -----------------------------------------------


     total cpu time spent up to now is    78026.6 secs

     total energy              =   -2800.28110115 Ry
     Harris-Foulkes estimate   =   -2846.43530031 Ry
     estimated scf accuracy    <    1520.09932760 Ry

     total magnetization       =     1.58 Bohr mag/cell
     absolute magnetization    =     1.63 Bohr mag/cell

     iteration # 25     ecut=    60.00 Ry     beta= 0.40
     Davidson diagonalization with overlap
     ethr =  1.00E-02,  avg # of iterations =  4.1

     negative rho (up, down):  1.097E+00 1.141E+00


     -----------------------------------------------
     Non-local corr. energy    =      10.92958655 Ry
     -----------------------------------------------


     total cpu time spent up to now is    79467.9 secs

     total energy              =   -2813.94186715 Ry
     Harris-Foulkes estimate   =   -2821.72371545 Ry
     estimated scf accuracy    <     329.79782958 Ry

     total magnetization       =     2.14 Bohr mag/cell
     absolute magnetization    =     2.22 Bohr mag/cell

     iteration # 26     ecut=    60.00 Ry     beta= 0.40
     Davidson diagonalization with overlap
     ethr =  1.00E-02,  avg # of iterations =  7.0

     negative rho (up, down):  1.571E+00 1.635E+00


     -----------------------------------------------
     Non-local corr. energy    =      10.99954312 Ry
     -----------------------------------------------


     total cpu time spent up to now is    81537.3 secs

     total energy              =   -2842.92049169 Ry
     Harris-Foulkes estimate   =   -2840.93949552 Ry
     estimated scf accuracy    <    1656.90907886 Ry

     total magnetization       =     4.48 Bohr mag/cell
     absolute magnetization    =     4.82 Bohr mag/cell

     iteration # 27     ecut=    60.00 Ry     beta= 0.40
     Davidson diagonalization with overlap
     ethr =  1.00E-02,  avg # of iterations =  4.9

     negative rho (up, down):  1.181E-02 1.245E-02


     -----------------------------------------------
     Non-local corr. energy    =      10.90755502 Ry
     -----------------------------------------------


     total cpu time spent up to now is    83401.1 secs

     total energy              =   -2563.61566895 Ry
     Harris-Foulkes estimate   =   -2879.26455711 Ry
     estimated scf accuracy    <    5001.06275438 Ry

     total magnetization       =     4.18 Bohr mag/cell
     absolute magnetization    =     4.37 Bohr mag/cell

     iteration # 28     ecut=    60.00 Ry     beta= 0.40
     Davidson diagonalization with overlap
     ethr =  1.00E-02,  avg # of iterations =  6.8

     negative rho (up, down):  1.269E-02 1.241E-02


     -----------------------------------------------
     Non-local corr. energy    =      10.87940248 Ry
     -----------------------------------------------


     total cpu time spent up to now is    85611.2 secs

     total energy              =   -2745.58975009 Ry
     Harris-Foulkes estimate   =   -2825.35598520 Ry
     estimated scf accuracy    <    1004.97169372 Ry

     total magnetization       =     0.67 Bohr mag/cell
     absolute magnetization    =     0.73 Bohr mag/cell

     iteration # 29     ecut=    60.00 Ry     beta= 0.40
     Davidson diagonalization with overlap
     ethr =  1.00E-02,  avg # of iterations =  4.4

     negative rho (up, down):  1.424E-02 1.420E-02


     -----------------------------------------------
     Non-local corr. energy    =      10.94086685 Ry
     -----------------------------------------------


     total cpu time spent up to now is    87185.6 secs

     total energy              =   -2773.30476849 Ry
     Harris-Foulkes estimate   =   -2792.99582477 Ry
     estimated scf accuracy    <     151.99264238 Ry

     total magnetization       =     0.33 Bohr mag/cell
     absolute magnetization    =     0.51 Bohr mag/cell

     iteration # 30     ecut=    60.00 Ry     beta= 0.40
     Davidson diagonalization with overlap
     ethr =  1.00E-02,  avg # of iterations =  2.0

     negative rho (up, down):  2.835E-02 2.849E-02


     -----------------------------------------------
     Non-local corr. energy    =      11.02281687 Ry
     -----------------------------------------------


     total cpu time spent up to now is    88049.5 secs

     total energy              =   -2772.93468679 Ry
     Harris-Foulkes estimate   =   -2785.99739102 Ry
     estimated scf accuracy    <     130.06312512 Ry

     total magnetization       =     0.25 Bohr mag/cell
     absolute magnetization    =     0.44 Bohr mag/cell

     iteration # 31     ecut=    60.00 Ry     beta= 0.40
     Davidson diagonalization with overlap
     ethr =  1.00E-02,  avg # of iterations =  1.2

     negative rho (up, down):  1.311E-02 1.313E-02


     -----------------------------------------------
     Non-local corr. energy    =      11.15535554 Ry
     -----------------------------------------------


     total cpu time spent up to now is    88861.4 secs

     total energy              =   -2769.48448033 Ry
     Harris-Foulkes estimate   =   -2782.02070254 Ry
     estimated scf accuracy    <     134.41114330 Ry

     total magnetization       =     0.17 Bohr mag/cell
     absolute magnetization    =     0.43 Bohr mag/cell

     iteration # 32     ecut=    60.00 Ry     beta= 0.40
     Davidson diagonalization with overlap
     ethr =  1.00E-02,  avg # of iterations =  2.0

     negative rho (up, down):  1.349E-02 1.358E-02


     -----------------------------------------------
     Non-local corr. energy    =      11.15163526 Ry
     -----------------------------------------------


     total cpu time spent up to now is    89701.5 secs

     total energy              =   -2766.03635609 Ry
     Harris-Foulkes estimate   =   -2777.36007963 Ry
     estimated scf accuracy    <     147.98402532 Ry

     total magnetization       =     0.17 Bohr mag/cell
     absolute magnetization    =     0.35 Bohr mag/cell

     iteration # 33     ecut=    60.00 Ry     beta= 0.40
     Davidson diagonalization with overlap
     ethr =  1.00E-02,  avg # of iterations =  2.7

     negative rho (up, down):  2.735E-05 2.582E-05


     -----------------------------------------------
     Non-local corr. energy    =      11.16212066 Ry
     -----------------------------------------------


     total cpu time spent up to now is    90573.6 secs

     total energy              =   -2768.60860723 Ry
     Harris-Foulkes estimate   =   -2775.28302939 Ry
     estimated scf accuracy    <      49.92009923 Ry

     total magnetization       =     0.27 Bohr mag/cell
     absolute magnetization    =     0.44 Bohr mag/cell

     iteration # 34     ecut=    60.00 Ry     beta= 0.40
     Davidson diagonalization with overlap
     ethr =  1.00E-02,  avg # of iterations =  2.5

     negative rho (up, down):  2.305E-05 2.160E-05


     -----------------------------------------------
     Non-local corr. energy    =      11.17131453 Ry
     -----------------------------------------------


     total cpu time spent up to now is    91432.7 secs

     total energy              =   -2768.82699123 Ry
     Harris-Foulkes estimate   =   -2775.94228104 Ry
     estimated scf accuracy    <      65.15358126 Ry

     total magnetization       =     0.29 Bohr mag/cell
     absolute magnetization    =     0.49 Bohr mag/cell

     iteration # 35     ecut=    60.00 Ry     beta= 0.40
     Davidson diagonalization with overlap
     ethr =  1.00E-02,  avg # of iterations =  1.9

     negative rho (up, down):  1.745E-05 1.693E-05


     -----------------------------------------------
     Non-local corr. energy    =      11.20164850 Ry
     -----------------------------------------------


     total cpu time spent up to now is    92262.2 secs

     total energy              =   -2769.66680026 Ry
     Harris-Foulkes estimate   =   -2775.64725043 Ry
     estimated scf accuracy    <      61.95894436 Ry

     total magnetization       =     0.34 Bohr mag/cell
     absolute magnetization    =     0.41 Bohr mag/cell

     iteration # 36     ecut=    60.00 Ry     beta= 0.40
     Davidson diagonalization with overlap
     ethr =  1.00E-02,  avg # of iterations =  1.3

     negative rho (up, down):  1.747E-05 1.704E-05


     -----------------------------------------------
     Non-local corr. energy    =      11.30925707 Ry
     -----------------------------------------------


     total cpu time spent up to now is    93075.7 secs

     total energy              =   -2769.19528477 Ry
     Harris-Foulkes estimate   =   -2774.25642571 Ry
     estimated scf accuracy    <      41.12691044 Ry

     total magnetization       =     0.49 Bohr mag/cell
     absolute magnetization    =     0.57 Bohr mag/cell

     iteration # 37     ecut=    60.00 Ry     beta= 0.40
     Davidson diagonalization with overlap
     ethr =  1.00E-02,  avg # of iterations =  1.9

     negative rho (up, down):  1.637E-05 1.597E-05


     -----------------------------------------------
     Non-local corr. energy    =      11.29990652 Ry
     -----------------------------------------------


     total cpu time spent up to now is    93903.4 secs

     total energy              =   -2769.59261971 Ry
     Harris-Foulkes estimate   =   -2773.31437627 Ry
     estimated scf accuracy    <      30.66217033 Ry

     total magnetization       =     0.25 Bohr mag/cell
     absolute magnetization    =     0.31 Bohr mag/cell

     iteration # 38     ecut=    60.00 Ry     beta= 0.40
     Davidson diagonalization with overlap
     ethr =  8.33E-03,  avg # of iterations =  2.0

     negative rho (up, down):  1.752E-05 1.703E-05


     -----------------------------------------------
     Non-local corr. energy    =      11.29102634 Ry
     -----------------------------------------------


     total cpu time spent up to now is    94744.1 secs

     total energy              =   -2769.27805796 Ry
     Harris-Foulkes estimate   =   -2773.88104604 Ry
     estimated scf accuracy    <      48.95502265 Ry

     total magnetization       =     0.32 Bohr mag/cell
     absolute magnetization    =     0.39 Bohr mag/cell

     iteration # 39     ecut=    60.00 Ry     beta= 0.40
     Davidson diagonalization with overlap
     ethr =  8.33E-03,  avg # of iterations =  1.6

     negative rho (up, down):  1.786E-05 1.742E-05


     -----------------------------------------------
     Non-local corr. energy    =      11.30379318 Ry
     -----------------------------------------------


     total cpu time spent up to now is    95565.8 secs

     total energy              =   -2771.03973557 Ry
     Harris-Foulkes estimate   =   -2772.37540267 Ry
     estimated scf accuracy    <      11.72395423 Ry

     total magnetization       =     0.34 Bohr mag/cell
     absolute magnetization    =     0.39 Bohr mag/cell

     iteration # 40     ecut=    60.00 Ry     beta= 0.40
     Davidson diagonalization with overlap
     ethr =  3.19E-03,  avg # of iterations =  2.2

     negative rho (up, down):  1.827E-05 1.797E-05


     -----------------------------------------------
     Non-local corr. energy    =      11.32613458 Ry
     -----------------------------------------------


     total cpu time spent up to now is    96408.8 secs

     total energy              =   -2771.49513811 Ry
     Harris-Foulkes estimate   =   -2771.98488583 Ry
     estimated scf accuracy    <       3.08190559 Ry

     total magnetization       =     0.36 Bohr mag/cell
     absolute magnetization    =     0.40 Bohr mag/cell

     iteration # 41     ecut=    60.00 Ry     beta= 0.40
     Davidson diagonalization with overlap
     ethr =  8.37E-04,  avg # of iterations =  8.7

     negative rho (up, down):  1.930E-05 1.917E-05


     -----------------------------------------------
     Non-local corr. energy    =      11.35363865 Ry
     -----------------------------------------------


     total cpu time spent up to now is    97523.8 secs

     total energy              =   -2771.58176073 Ry
     Harris-Foulkes estimate   =   -2771.87179950 Ry
     estimated scf accuracy    <       1.64108800 Ry

     total magnetization       =     0.32 Bohr mag/cell
     absolute magnetization    =     0.36 Bohr mag/cell

     iteration # 42     ecut=    60.00 Ry     beta= 0.40
     Davidson diagonalization with overlap
     ethr =  4.46E-04,  avg # of iterations =  6.4

     negative rho (up, down):  2.027E-05 2.017E-05


     -----------------------------------------------
     Non-local corr. energy    =      11.36349554 Ry
     -----------------------------------------------


     total cpu time spent up to now is    98507.8 secs

     total energy              =   -2771.58296780 Ry
     Harris-Foulkes estimate   =   -2771.84409312 Ry
     estimated scf accuracy    <       1.97754614 Ry

     total magnetization       =     0.28 Bohr mag/cell
     absolute magnetization    =     0.32 Bohr mag/cell

     iteration # 43     ecut=    60.00 Ry     beta= 0.40
     Davidson diagonalization with overlap
     ethr =  4.46E-04,  avg # of iterations =  2.1

     negative rho (up, down):  2.107E-05 2.098E-05


     -----------------------------------------------
     Non-local corr. energy    =      11.37022646 Ry
     -----------------------------------------------


     total cpu time spent up to now is    99341.5 secs

     total energy              =   -2771.68837093 Ry
     Harris-Foulkes estimate   =   -2771.74892375 Ry
     estimated scf accuracy    <       0.29616615 Ry

     total magnetization       =     0.27 Bohr mag/cell
     absolute magnetization    =     0.30 Bohr mag/cell

     iteration # 44     ecut=    60.00 Ry     beta= 0.40
     Davidson diagonalization with overlap
     ethr =  8.05E-05,  avg # of iterations = 10.8

     negative rho (up, down):  2.296E-05 2.287E-05


     -----------------------------------------------
     Non-local corr. energy    =      11.37731348 Ry
     -----------------------------------------------


     total cpu time spent up to now is   100541.0 secs

     total energy              =   -2771.66957796 Ry
     Harris-Foulkes estimate   =   -2771.76089530 Ry
     estimated scf accuracy    <       0.63641269 Ry

     total magnetization       =     0.25 Bohr mag/cell
     absolute magnetization    =     0.28 Bohr mag/cell

     iteration # 45     ecut=    60.00 Ry     beta= 0.40
     Davidson diagonalization with overlap
     ethr =  8.05E-05,  avg # of iterations =  3.3

     negative rho (up, down):  2.431E-05 2.426E-05


     -----------------------------------------------
     Non-local corr. energy    =      11.38358198 Ry
     -----------------------------------------------


     total cpu time spent up to now is   101422.6 secs

     total energy              =   -2771.67716641 Ry
     Harris-Foulkes estimate   =   -2771.76899935 Ry
     estimated scf accuracy    <       1.64259796 Ry

     total magnetization       =     0.22 Bohr mag/cell
     absolute magnetization    =     0.25 Bohr mag/cell

     iteration # 46     ecut=    60.00 Ry     beta= 0.40
     Davidson diagonalization with overlap
     ethr =  8.05E-05,  avg # of iterations =  1.6

     negative rho (up, down):  2.438E-05 2.434E-05


     -----------------------------------------------
     Non-local corr. energy    =      11.38340885 Ry
     -----------------------------------------------


     total cpu time spent up to now is   102243.5 secs

     total energy              =   -2771.70535498 Ry
     Harris-Foulkes estimate   =   -2771.73093542 Ry
     estimated scf accuracy    <       0.22104961 Ry

     total magnetization       =     0.21 Bohr mag/cell
     absolute magnetization    =     0.24 Bohr mag/cell

     iteration # 47     ecut=    60.00 Ry     beta= 0.40
     Davidson diagonalization with overlap
     ethr =  6.01E-05,  avg # of iterations =  1.5

     negative rho (up, down):  3.088E-05 3.084E-05


     -----------------------------------------------
     Non-local corr. energy    =      11.38923217 Ry
     -----------------------------------------------


     total cpu time spent up to now is   103065.6 secs

     total energy              =   -2771.70941149 Ry
     Harris-Foulkes estimate   =   -2771.72507661 Ry
     estimated scf accuracy    <       0.19709468 Ry

     total magnetization       =     0.21 Bohr mag/cell
     absolute magnetization    =     0.24 Bohr mag/cell

     iteration # 48     ecut=    60.00 Ry     beta= 0.40
     Davidson diagonalization with overlap
     ethr =  5.36E-05,  avg # of iterations =  7.8

     negative rho (up, down):  2.594E-05 2.591E-05


     -----------------------------------------------
     Non-local corr. energy    =      11.38523467 Ry
     -----------------------------------------------


     total cpu time spent up to now is   104102.4 secs

     total energy              =   -2771.71238846 Ry
     Harris-Foulkes estimate   =   -2771.72211841 Ry
     estimated scf accuracy    <       0.11016238 Ry

     total magnetization       =     0.19 Bohr mag/cell
     absolute magnetization    =     0.21 Bohr mag/cell

     iteration # 49     ecut=    60.00 Ry     beta= 0.40
     Davidson diagonalization with overlap
     ethr =  2.99E-05,  avg # of iterations =  2.1

     negative rho (up, down):  3.007E-05 3.004E-05


     -----------------------------------------------
     Non-local corr. energy    =      11.38875642 Ry
     -----------------------------------------------


     total cpu time spent up to now is   104938.1 secs

     total energy              =   -2771.71308418 Ry
     Harris-Foulkes estimate   =   -2771.72416285 Ry
     estimated scf accuracy    <       0.10747679 Ry

     total magnetization       =     0.19 Bohr mag/cell
     absolute magnetization    =     0.21 Bohr mag/cell

     iteration # 50     ecut=    60.00 Ry     beta= 0.40
     Davidson diagonalization with overlap
     ethr =  2.92E-05,  avg # of iterations =  1.0

     negative rho (up, down):  3.217E-05 3.215E-05


     -----------------------------------------------
     Non-local corr. energy    =      11.38962961 Ry
     -----------------------------------------------


     total cpu time spent up to now is   105739.9 secs

     total energy              =   -2771.71693246 Ry
     Harris-Foulkes estimate   =   -2771.71998825 Ry
     estimated scf accuracy    <       0.02626526 Ry

     total magnetization       =     0.17 Bohr mag/cell
     absolute magnetization    =     0.19 Bohr mag/cell

     iteration # 51     ecut=    60.00 Ry     beta= 0.40
     Davidson diagonalization with overlap
     c_bands:  1 eigenvalues not converged
     ethr =  7.14E-06,  avg # of iterations =  6.1

     negative rho (up, down):  3.587E-05 3.585E-05


     -----------------------------------------------
     Non-local corr. energy    =      11.39044684 Ry
     -----------------------------------------------


     total cpu time spent up to now is   106726.7 secs

     total energy              =   -2771.71810982 Ry
     Harris-Foulkes estimate   =   -2771.71904357 Ry
     estimated scf accuracy    <       0.00643912 Ry

     total magnetization       =     0.17 Bohr mag/cell
     absolute magnetization    =     0.18 Bohr mag/cell

     iteration # 52     ecut=    60.00 Ry     beta= 0.40
     Davidson diagonalization with overlap
     ethr =  1.75E-06,  avg # of iterations =  7.1

     negative rho (up, down):  3.694E-05 3.693E-05


     -----------------------------------------------
     Non-local corr. energy    =      11.39030079 Ry
     -----------------------------------------------


     total cpu time spent up to now is   107750.5 secs

     total energy              =   -2771.71852027 Ry
     Harris-Foulkes estimate   =   -2771.71870989 Ry
     estimated scf accuracy    <       0.00095343 Ry

     total magnetization       =     0.16 Bohr mag/cell
     absolute magnetization    =     0.17 Bohr mag/cell

     iteration # 53     ecut=    60.00 Ry     beta= 0.40
     Davidson diagonalization with overlap
     ethr =  2.59E-07,  avg # of iterations =  2.6

     negative rho (up, down):  3.819E-05 3.817E-05


     -----------------------------------------------
     Non-local corr. energy    =      11.39045914 Ry
     -----------------------------------------------


     total cpu time spent up to now is   108672.8 secs

     total energy              =   -2771.71843103 Ry
     Harris-Foulkes estimate   =   -2771.71886736 Ry
     estimated scf accuracy    <       0.00348530 Ry

     total magnetization       =     0.14 Bohr mag/cell
     absolute magnetization    =     0.16 Bohr mag/cell

     iteration # 54     ecut=    60.00 Ry     beta= 0.40
     Davidson diagonalization with overlap
     ethr =  2.59E-07,  avg # of iterations =  2.3

     negative rho (up, down):  4.175E-05 4.173E-05


     -----------------------------------------------
     Non-local corr. energy    =      11.39081240 Ry
     -----------------------------------------------


     total cpu time spent up to now is   109525.0 secs

     total energy              =   -2771.71862438 Ry
     Harris-Foulkes estimate   =   -2771.71869588 Ry
     estimated scf accuracy    <       0.00057414 Ry

     total magnetization       =     0.14 Bohr mag/cell
     absolute magnetization    =     0.15 Bohr mag/cell

     iteration # 55     ecut=    60.00 Ry     beta= 0.40
     Davidson diagonalization with overlap
     ethr =  1.56E-07,  avg # of iterations =  1.0

     negative rho (up, down):  4.088E-05 4.086E-05


     -----------------------------------------------
     Non-local corr. energy    =      11.39070084 Ry
     -----------------------------------------------


     total cpu time spent up to now is   110327.7 secs

     total energy              =   -2771.71863700 Ry
     Harris-Foulkes estimate   =   -2771.71868444 Ry
     estimated scf accuracy    <       0.00023177 Ry

     total magnetization       =     0.13 Bohr mag/cell
     absolute magnetization    =     0.14 Bohr mag/cell

     iteration # 56     ecut=    60.00 Ry     beta= 0.40
     Davidson diagonalization with overlap
     ethr =  6.30E-08,  avg # of iterations =  2.0

     negative rho (up, down):  4.143E-05 4.141E-05


     -----------------------------------------------
     Non-local corr. energy    =      11.39071773 Ry
     -----------------------------------------------


     total cpu time spent up to now is   111182.8 secs

     total energy              =   -2771.71861803 Ry
     Harris-Foulkes estimate   =   -2771.71871391 Ry
     estimated scf accuracy    <       0.00086254 Ry

     total magnetization       =     0.12 Bohr mag/cell
     absolute magnetization    =     0.14 Bohr mag/cell

     iteration # 57     ecut=    60.00 Ry     beta= 0.40
     Davidson diagonalization with overlap
     ethr =  6.30E-08,  avg # of iterations =  2.0

     negative rho (up, down):  4.263E-05 4.261E-05


     -----------------------------------------------
     Non-local corr. energy    =      11.39079146 Ry
     -----------------------------------------------


     total cpu time spent up to now is   112027.5 secs

     total energy              =   -2771.71863645 Ry
     Harris-Foulkes estimate   =   -2771.71869930 Ry
     estimated scf accuracy    <       0.00083771 Ry

     total magnetization       =     0.12 Bohr mag/cell
     absolute magnetization    =     0.13 Bohr mag/cell

     iteration # 58     ecut=    60.00 Ry     beta= 0.40
     Davidson diagonalization with overlap
     ethr =  6.30E-08,  avg # of iterations =  1.1

     negative rho (up, down):  4.343E-05 4.341E-05


     -----------------------------------------------
     Non-local corr. energy    =      11.39082934 Ry
     -----------------------------------------------


     total cpu time spent up to now is   112835.9 secs

     total energy              =   -2771.71864716 Ry
     Harris-Foulkes estimate   =   -2771.71869637 Ry
     estimated scf accuracy    <       0.00117496 Ry

     total magnetization       =     0.11 Bohr mag/cell
     absolute magnetization    =     0.12 Bohr mag/cell

     iteration # 59     ecut=    60.00 Ry     beta= 0.40
     Davidson diagonalization with overlap
     ethr =  6.30E-08,  avg # of iterations =  1.0

     negative rho (up, down):  4.478E-05 4.476E-05


     -----------------------------------------------
     Non-local corr. energy    =      11.39078661 Ry
     -----------------------------------------------

 
     Magnetic moment per site:
     atom:    1    charge:    0.3852    magn:    0.0000    constr:    0.0000
     atom:    2    charge:    0.3830    magn:    0.0000    constr:    0.0000
     atom:    3    charge:    0.3859    magn:    0.0000    constr:    0.0000
     atom:    4    charge:    0.3848    magn:    0.0000    constr:    0.0000
     atom:    5    charge:    0.3795    magn:    0.0000    constr:    0.0000
     atom:    6    charge:    0.3923    magn:   -0.0000    constr:    0.0000
     atom:    7    charge:    0.3717    magn:    0.0000    constr:    0.0000
     atom:    8    charge:    0.3732    magn:   -0.0000    constr:    0.0000
     atom:    9    charge:    0.3926    magn:   -0.0000    constr:    0.0000
     atom:   10    charge:    0.3815    magn:    0.0000    constr:    0.0000
     atom:   11    charge:    0.3779    magn:   -0.0000    constr:    0.0000
     atom:   12    charge:    0.3745    magn:   -0.0000    constr:    0.0000
     atom:   13    charge:    0.3820    magn:   -0.0000    constr:    0.0000
     atom:   14    charge:    0.3836    magn:   -0.0000    constr:    0.0000
     atom:   15    charge:    0.3856    magn:    0.0000    constr:    0.0000
     atom:   16    charge:    0.3809    magn:    0.0000    constr:    0.0000
     atom:   17    charge:    0.3754    magn:    0.0000    constr:    0.0000
     atom:   18    charge:    0.3881    magn:    0.0000    constr:    0.0000
     atom:   19    charge:    0.3849    magn:    0.0000    constr:    0.0000
     atom:   20    charge:    0.3885    magn:    0.0000    constr:    0.0000
     atom:   21    charge:    0.4029    magn:   -0.0000    constr:    0.0000
     atom:   22    charge:    0.3702    magn:   -0.0000    constr:    0.0000
     atom:   23    charge:    0.3829    magn:   -0.0000    constr:    0.0000
     atom:   24    charge:    0.3848    magn:   -0.0000    constr:    0.0000
     atom:   25    charge:    0.2989    magn:   -0.0000    constr:    0.0000
     atom:   26    charge:    0.2991    magn:   -0.0000    constr:    0.0000
     atom:   27    charge:    4.6484    magn:    0.0042    constr:    0.0000
     atom:   28    charge:    4.6494    magn:    0.0033    constr:    0.0000
     atom:   29    charge:    4.6472    magn:    0.0031    constr:    0.0000
     atom:   30    charge:    4.6485    magn:    0.0029    constr:    0.0000
     atom:   31    charge:    4.6508    magn:    0.0028    constr:    0.0000
     atom:   32    charge:    4.6481    magn:    0.0031    constr:    0.0000
     atom:   33    charge:    4.6478    magn:    0.0031    constr:    0.0000
     atom:   34    charge:    4.6501    magn:    0.0032    constr:    0.0000
     atom:   35    charge:    4.6466    magn:    0.0029    constr:    0.0000
     atom:   36    charge:    4.6477    magn:    0.0030    constr:    0.0000
     atom:   37    charge:    4.6484    magn:    0.0031    constr:    0.0000
     atom:   38    charge:    4.6470    magn:    0.0028    constr:    0.0000
     atom:   39    charge:    4.6489    magn:    0.0029    constr:    0.0000
     atom:   40    charge:    4.6497    magn:    0.0029    constr:    0.0000
     atom:   41    charge:    4.6493    magn:    0.0030    constr:    0.0000
     atom:   42    charge:    4.6454    magn:    0.0029    constr:    0.0000
     atom:   43    charge:    4.6470    magn:    0.0036    constr:    0.0000
     atom:   44    charge:    4.6457    magn:    0.0034    constr:    0.0000
     atom:   45    charge:    4.6465    magn:    0.0023    constr:    0.0000
     atom:   46    charge:    4.6478    magn:    0.0024    constr:    0.0000
     atom:   47    charge:    4.6376    magn:    0.0019    constr:    0.0000
     atom:   48    charge:    4.6510    magn:    0.0017    constr:    0.0000
     atom:   49    charge:    4.6592    magn:    0.0013    constr:    0.0000
     atom:   50    charge:    4.6516    magn:    0.0016    constr:    0.0000
     atom:   51    charge:    4.6554    magn:    0.0017    constr:    0.0000
     atom:   52    charge:    4.6531    magn:    0.0017    constr:    0.0000
     atom:   53    charge:    4.6515    magn:    0.0022    constr:    0.0000
     atom:   54    charge:    1.8852    magn:   -0.0000    constr:    0.0000
     atom:   55    charge:    1.8848    magn:   -0.0000    constr:    0.0000
     atom:   56    charge:    1.8866    magn:    0.0000    constr:    0.0000
     atom:   57    charge:    1.8845    magn:    0.0001    constr:    0.0000
     atom:   58    charge:    1.8852    magn:    0.0000    constr:    0.0000
     atom:   59    charge:    1.8879    magn:    0.0000    constr:    0.0000
     atom:   60    charge:    1.8862    magn:    0.0000    constr:    0.0000
     atom:   61    charge:    1.8903    magn:   -0.0000    constr:    0.0000
     atom:   62    charge:    1.8850    magn:   -0.0000    constr:    0.0000
     atom:   63    charge:    1.8863    magn:   -0.0000    constr:    0.0000
     atom:   64    charge:    1.8853    magn:    0.0001    constr:    0.0000
     atom:   65    charge:    1.8856    magn:    0.0000    constr:    0.0000

     total cpu time spent up to now is   113638.2 secs

     End of self-consistent calculation

 ------ SPIN UP ------------


          k = 0.0000 0.0000 0.0000 (121177 PWs)   bands (ev):

   -21.7080 -21.5472 -21.3978 -21.3497 -21.2854 -21.2485 -21.1502 -21.0936
   -21.0107 -20.9993 -20.9201 -20.7556  -9.5786  -9.4138  -9.3560  -9.2960
    -9.2671  -9.2354  -9.1995  -9.0887  -9.0229  -8.9789  -8.9627  -8.9112
    -8.8058  -7.8432  -7.3231  -6.7238  -6.6296  -6.5174  -6.3203  -6.2784
    -6.2602  -6.2330  -6.2011  -6.1480  -6.0311  -5.9904  -5.9289  -5.8055
    -5.7150  -5.6570  -5.6433  -5.6211  -5.6164  -5.5511  -5.4490  -5.4085
    -5.3735  -5.3601  -5.2760  -5.2622  -5.2323  -5.2241  -5.1787  -5.1531
    -5.1161  -5.0535  -4.9313  -4.9177  -4.8965  -4.8831  -4.8189  -4.8152
    -4.7558  -4.7195  -4.7071  -4.7028  -4.6908  -4.5040  -4.3871  -4.3247
    -4.1436  -4.1354  -4.1312  -4.0655  -3.9122  -3.8397  -3.8337  -3.8161
    -3.8021  -3.7533  -3.7071  -3.6853  -3.6656  -3.6293  -3.6089  -3.5747
    -3.5342  -3.4849  -3.4844  -3.4769  -3.4672  -3.4600  -3.4500  -3.4323
    -3.4080  -3.4017  -3.3973  -3.3855  -3.3509  -3.3444  -3.3348  -3.2757
    -3.2207  -3.2058  -3.0517  -3.0223  -3.0107  -2.9944  -2.9832  -2.9460
    -2.9332  -2.9213  -2.9086  -2.8977  -2.8863  -2.8838  -2.8338  -2.8315
    -2.8205  -2.8128  -2.8085  -2.7936  -2.7873  -2.7803  -2.7497  -2.7175
    -2.5795  -2.3289  -2.2980  -2.2914  -2.2800  -2.0170  -2.0012  -1.9488
    -1.9418  -1.9158  -1.9069  -1.8509  -1.8370  -1.7398  -1.7371  -1.6949
    -1.6816  -1.6636  -1.6598  -1.6415  -1.6347  -1.5945  -1.5901  -1.2654
    -1.2549  -1.2391  -1.2311  -1.2259  -1.2190  -1.1757  -1.1440  -1.1098
    -1.0949  -1.0421  -1.0375  -1.0206  -1.0130  -1.0000  -0.9248  -0.9220
    -0.8713  -0.8606  -0.8113  -0.8009  -0.7395  -0.7303  -0.7222  -0.7213
    -0.7161  -0.7143  -0.7031  -0.6976  -0.6926  -0.6814  -0.6482  -0.5888
    -0.5354  -0.5310  -0.4965  -0.4739  -0.4347  -0.4089  -0.3976  -0.3651
    -0.3450  -0.3259  -0.3131  -0.2995  -0.2914  -0.1122   0.6099   1.7662
     1.8330   1.9517   2.0573   2.0945   2.1741   2.4687   2.9635   3.4370
     3.8238   4.0195   4.1921   4.2775   4.3366   4.4356   4.4876   4.5459
     4.5656   4.5940   4.6145   4.6927   4.8674

     occupation numbers 
     1.0000   1.0000   1.0000   1.0000   1.0000   1.0000   1.0000   1.0000
     1.0000   1.0000   1.0000   1.0000   1.0000   1.0000   1.0000   1.0000
     1.0000   1.0000   1.0000   1.0000   1.0000   1.0000   1.0000   1.0000
     1.0000   1.0000   1.0000   1.0000   1.0000   1.0000   1.0000   1.0000
     1.0000   1.0000   1.0000   1.0000   1.0000   1.0000   1.0000   1.0000
     1.0000   1.0000   1.0000   1.0000   1.0000   1.0000   1.0000   1.0000
     1.0000   1.0000   1.0000   1.0000   1.0000   1.0000   1.0000   1.0000
     1.0000   1.0000   1.0000   1.0000   1.0000   1.0000   1.0000   1.0000
     1.0000   1.0000   1.0000   1.0000   1.0000   1.0000   1.0000   1.0000
     1.0000   1.0000   1.0000   1.0000   1.0000   1.0000   1.0000   1.0000
     1.0000   1.0000   1.0000   1.0000   1.0000   1.0000   1.0000   1.0000
     1.0000   1.0000   1.0000   1.0000   1.0000   1.0000   1.0000   1.0000
     1.0000   1.0000   1.0000   1.0000   1.0000   1.0000   1.0000   1.0000
     1.0000   1.0000   1.0000   1.0000   1.0000   1.0000   1.0000   1.0000
     1.0000   1.0000   1.0000   1.0000   1.0000   1.0000   1.0000   1.0000
     1.0000   1.0000   1.0000   1.0000   1.0000   1.0000   1.0000   1.0001
     1.0002   1.0011   1.0013   1.0014   1.0015   1.0069   1.0075   1.0099
     1.0102   1.0116   1.0121   1.0157   1.0167   1.0250   1.0252   1.0296
     1.0311   1.0331   1.0336   1.0357   1.0366   1.0416   1.0422   1.0812
     1.0818   1.0825   1.0828   1.0830   1.0831   1.0830   1.0816   1.0786
     1.0768   1.0677   1.0667   1.0627   1.0607   1.0571   1.0301   1.0289
     1.0042   0.9983   0.9684   0.9615   0.9163   0.9090   0.9024   0.9017
     0.8974   0.8958   0.8864   0.8817   0.8774   0.8675   0.8370   0.7789
     0.7233   0.7186   0.6813   0.6567   0.6134   0.5848   0.5722   0.5364
     0.5144   0.4936   0.4799   0.4654   0.4568   0.2845   0.0117   0.0000
     0.0000   0.0000   0.0000   0.0000   0.0000   0.0000   0.0000   0.0000
     0.0000   0.0000   0.0000   0.0000   0.0000   0.0000   0.0000   0.0000
     0.0000   0.0000   0.0000   0.0000   0.0000

          k = 0.0000 0.0000 0.1175 (121130 PWs)   bands (ev):

   -21.7080 -21.5472 -21.3978 -21.3497 -21.2854 -21.2485 -21.1502 -21.0936
   -21.0107 -20.9993 -20.9201 -20.7556  -9.5786  -9.4138  -9.3560  -9.2960
    -9.2671  -9.2354  -9.1995  -9.0887  -9.0229  -8.9789  -8.9627  -8.9112
    -8.8058  -7.8432  -7.3231  -6.7238  -6.6296  -6.5174  -6.3203  -6.2784
    -6.2602  -6.2330  -6.2011  -6.1480  -6.0311  -5.9904  -5.9289  -5.8055
    -5.7150  -5.6570  -5.6433  -5.6211  -5.6164  -5.5511  -5.4490  -5.4085
    -5.3735  -5.3601  -5.2760  -5.2622  -5.2323  -5.2241  -5.1787  -5.1531
    -5.1161  -5.0535  -4.9313  -4.9177  -4.8965  -4.8831  -4.8189  -4.8152
    -4.7558  -4.7195  -4.7071  -4.7028  -4.6908  -4.5040  -4.3871  -4.3247
    -4.1436  -4.1354  -4.1312  -4.0655  -3.9122  -3.8397  -3.8337  -3.8161
    -3.8021  -3.7533  -3.7071  -3.6853  -3.6656  -3.6293  -3.6089  -3.5747
    -3.5342  -3.4849  -3.4844  -3.4769  -3.4672  -3.4600  -3.4500  -3.4323
    -3.4080  -3.4017  -3.3973  -3.3855  -3.3509  -3.3444  -3.3348  -3.2757
    -3.2207  -3.2058  -3.0517  -3.0223  -3.0107  -2.9944  -2.9832  -2.9460
    -2.9332  -2.9213  -2.9086  -2.8977  -2.8863  -2.8838  -2.8338  -2.8315
    -2.8205  -2.8128  -2.8085  -2.7936  -2.7873  -2.7803  -2.7497  -2.7175
    -2.5795  -2.3289  -2.2980  -2.2914  -2.2800  -2.0170  -2.0012  -1.9488
    -1.9418  -1.9158  -1.9069  -1.8509  -1.8370  -1.7398  -1.7371  -1.6949
    -1.6816  -1.6636  -1.6597  -1.6415  -1.6347  -1.5945  -1.5901  -1.2654
    -1.2549  -1.2391  -1.2311  -1.2259  -1.2190  -1.1757  -1.1440  -1.1098
    -1.0949  -1.0421  -1.0375  -1.0206  -1.0130  -1.0000  -0.9248  -0.9220
    -0.8713  -0.8606  -0.8113  -0.8009  -0.7395  -0.7303  -0.7222  -0.7213
    -0.7161  -0.7143  -0.7031  -0.6976  -0.6926  -0.6814  -0.6482  -0.5888
    -0.5354  -0.5310  -0.4965  -0.4739  -0.4347  -0.4089  -0.3976  -0.3651
    -0.3450  -0.3259  -0.3131  -0.2995  -0.2914  -0.1122   0.6099   1.7662
     1.8330   1.9517   2.0573   2.0945   2.1741   2.4687   2.9630   3.4441
     3.7782   4.1241   4.1902   4.2398   4.3218   4.4332   4.4815   4.5183
     4.5477   4.5952   4.6139   4.6796   4.8674

     occupation numbers 
     1.0000   1.0000   1.0000   1.0000   1.0000   1.0000   1.0000   1.0000
     1.0000   1.0000   1.0000   1.0000   1.0000   1.0000   1.0000   1.0000
     1.0000   1.0000   1.0000   1.0000   1.0000   1.0000   1.0000   1.0000
     1.0000   1.0000   1.0000   1.0000   1.0000   1.0000   1.0000   1.0000
     1.0000   1.0000   1.0000   1.0000   1.0000   1.0000   1.0000   1.0000
     1.0000   1.0000   1.0000   1.0000   1.0000   1.0000   1.0000   1.0000
     1.0000   1.0000   1.0000   1.0000   1.0000   1.0000   1.0000   1.0000
     1.0000   1.0000   1.0000   1.0000   1.0000   1.0000   1.0000   1.0000
     1.0000   1.0000   1.0000   1.0000   1.0000   1.0000   1.0000   1.0000
     1.0000   1.0000   1.0000   1.0000   1.0000   1.0000   1.0000   1.0000
     1.0000   1.0000   1.0000   1.0000   1.0000   1.0000   1.0000   1.0000
     1.0000   1.0000   1.0000   1.0000   1.0000   1.0000   1.0000   1.0000
     1.0000   1.0000   1.0000   1.0000   1.0000   1.0000   1.0000   1.0000
     1.0000   1.0000   1.0000   1.0000   1.0000   1.0000   1.0000   1.0000
     1.0000   1.0000   1.0000   1.0000   1.0000   1.0000   1.0000   1.0000
     1.0000   1.0000   1.0000   1.0000   1.0000   1.0000   1.0000   1.0001
     1.0002   1.0011   1.0013   1.0014   1.0015   1.0069   1.0075   1.0099
     1.0102   1.0116   1.0121   1.0157   1.0167   1.0250   1.0252   1.0296
     1.0311   1.0331   1.0336   1.0357   1.0366   1.0416   1.0422   1.0812
     1.0818   1.0825   1.0828   1.0830   1.0831   1.0830   1.0816   1.0786
     1.0768   1.0677   1.0667   1.0627   1.0607   1.0571   1.0301   1.0289
     1.0042   0.9983   0.9684   0.9615   0.9163   0.9090   0.9024   0.9017
     0.8974   0.8958   0.8864   0.8817   0.8774   0.8675   0.8370   0.7789
[...]
     The Hubbard contrib.    to forces
     atom    1 type  1   force =     0.00000000    0.00000000    0.00000000
     atom    2 type  1   force =     0.00000000    0.00000000    0.00000000
     atom    3 type  1   force =     0.00000000    0.00000000    0.00000000
     atom    4 type  1   force =     0.00000000    0.00000000    0.00000000
     atom    5 type  1   force =     0.00000000    0.00000000    0.00000000
     atom    6 type  1   force =     0.00000000    0.00000000    0.00000000
     atom    7 type  1   force =     0.00000000    0.00000000    0.00000000
     atom    8 type  1   force =     0.00000000    0.00000000    0.00000000
     atom    9 type  1   force =     0.00000000    0.00000000    0.00000000
     atom   10 type  1   force =     0.00000000    0.00000000    0.00000000
     atom   11 type  1   force =     0.00000000    0.00000000    0.00000000
     atom   12 type  1   force =     0.00000000    0.00000000    0.00000000
     atom   13 type  1   force =     0.00000000    0.00000000    0.00000000
     atom   14 type  1   force =     0.00000000    0.00000000    0.00000000
     atom   15 type  1   force =     0.00000000    0.00000000    0.00000000
     atom   16 type  1   force =     0.00000000    0.00000000    0.00000000
     atom   17 type  1   force =     0.00000000    0.00000000    0.00000000
     atom   18 type  1   force =     0.00000000    0.00000000    0.00000000
     atom   19 type  1   force =     0.00000000    0.00000000    0.00000000
     atom   20 type  1   force =     0.00000000    0.00000000    0.00000000
     atom   21 type  1   force =     0.00000000    0.00000000    0.00000000
     atom   22 type  1   force =     0.00000000    0.00000000    0.00000000
     atom   23 type  1   force =     0.00000000    0.00000000    0.00000000
     atom   24 type  1   force =     0.00000000    0.00000000    0.00000000
     atom   25 type  1   force =     0.00000000    0.00000000    0.00000000
     atom   26 type  1   force =     0.00000000    0.00000000    0.00000000
     atom   27 type  3   force =     0.00000000    0.00000000    0.00000000
     atom   28 type  3   force =     0.00000000    0.00000000    0.00000000
     atom   29 type  3   force =     0.00000000    0.00000000    0.00000000
     atom   30 type  3   force =     0.00000000    0.00000000    0.00000000
     atom   31 type  3   force =     0.00000000    0.00000000    0.00000000
     atom   32 type  3   force =     0.00000000    0.00000000    0.00000000
     atom   33 type  3   force =     0.00000000    0.00000000    0.00000000
     atom   34 type  3   force =     0.00000000    0.00000000    0.00000000
     atom   35 type  3   force =     0.00000000    0.00000000    0.00000000
     atom   36 type  3   force =     0.00000000    0.00000000    0.00000000
     atom   37 type  3   force =     0.00000000    0.00000000    0.00000000
     atom   38 type  3   force =     0.00000000    0.00000000    0.00000000
     atom   39 type  3   force =     0.00000000    0.00000000    0.00000000
     atom   40 type  3   force =     0.00000000    0.00000000    0.00000000
     atom   41 type  3   force =     0.00000000    0.00000000    0.00000000
     atom   42 type  3   force =     0.00000000    0.00000000    0.00000000
     atom   43 type  3   force =     0.00000000    0.00000000    0.00000000
     atom   44 type  3   force =     0.00000000    0.00000000    0.00000000
     atom   45 type  3   force =     0.00000000    0.00000000    0.00000000
     atom   46 type  3   force =     0.00000000    0.00000000    0.00000000
     atom   47 type  3   force =     0.00000000    0.00000000    0.00000000
     atom   48 type  3   force =     0.00000000    0.00000000    0.00000000
     atom   49 type  3   force =     0.00000000    0.00000000    0.00000000
     atom   50 type  3   force =     0.00000000    0.00000000    0.00000000
     atom   51 type  3   force =     0.00000000    0.00000000    0.00000000
     atom   52 type  3   force =     0.00000000    0.00000000    0.00000000
     atom   53 type  3   force =     0.00000000    0.00000000    0.00000000
     atom   54 type  2   force =     0.00000000    0.00000000    0.00000000
     atom   55 type  2   force =     0.00000000    0.00000000    0.00000000
     atom   56 type  2   force =     0.00000000    0.00000000    0.00000000
     atom   57 type  2   force =     0.00000000    0.00000000    0.00000000
     atom   58 type  2   force =     0.00000000    0.00000000    0.00000000
     atom   59 type  2   force =     0.00000000    0.00000000    0.00000000
     atom   60 type  2   force =     0.00000000    0.00000000    0.00000000
     atom   61 type  2   force =     0.00000000    0.00000000    0.00000000
     atom   62 type  2   force =     0.00000000    0.00000000    0.00000000
     atom   63 type  2   force =     0.00000000    0.00000000    0.00000000
     atom   64 type  2   force =     0.00000000    0.00000000    0.00000000
     atom   65 type  2   force =     0.00000000    0.00000000    0.00000000
     The SCF correction term to forces
     atom    1 type  1   force =     0.00001168    0.00000333   -0.00016540
     atom    2 type  1   force =     0.00002023    0.00001881   -0.00013944
     atom    3 type  1   force =     0.00003757   -0.00003075   -0.00013663
     atom    4 type  1   force =     0.00000255   -0.00000026   -0.00017481
     atom    5 type  1   force =     0.00000117   -0.00001136   -0.00014468
     atom    6 type  1   force =    -0.00002208   -0.00001960   -0.00010621
     atom    7 type  1   force =    -0.00003103    0.00004136   -0.00014565
     atom    8 type  1   force =    -0.00001409   -0.00000364   -0.00016114
     atom    9 type  1   force =    -0.00002685   -0.00001400   -0.00016704
     atom   10 type  1   force =     0.00001916    0.00001723   -0.00013216
     atom   11 type  1   force =     0.00002815   -0.00000626   -0.00014183
     atom   12 type  1   force =     0.00000059    0.00000166   -0.00013754
     atom   13 type  1   force =     0.00002054    0.00000998   -0.00012515
     atom   14 type  1   force =    -0.00001087   -0.00001321   -0.00013201
     atom   15 type  1   force =    -0.00000928   -0.00001615   -0.00012839
     atom   16 type  1   force =     0.00001782   -0.00000064   -0.00012642
     atom   17 type  1   force =    -0.00000332   -0.00000100   -0.00013032
     atom   18 type  1   force =     0.00001206   -0.00001633   -0.00013992
     atom   19 type  1   force =     0.00000745   -0.00001628   -0.00012431
     atom   20 type  1   force =     0.00000851    0.00002699   -0.00013627
     atom   21 type  1   force =    -0.00000206    0.00000057   -0.00015475
     atom   22 type  1   force =     0.00001060   -0.00000214   -0.00012701
     atom   23 type  1   force =     0.00000682   -0.00001304   -0.00013412
     atom   24 type  1   force =     0.00001285    0.00001768   -0.00013172
     atom   25 type  1   force =     0.00005641   -0.00013707    0.00014875
     atom   26 type  1   force =     0.00001914   -0.00003614    0.00007451
     atom   27 type  3   force =    -0.00446191   -0.00019949    0.00393044
     atom   28 type  3   force =     0.00170463   -0.00199503    0.00420978
     atom   29 type  3   force =     0.00276510   -0.00410218    0.00407451
     atom   30 type  3   force =    -0.00306318    0.00187320    0.00231154
     atom   31 type  3   force =     0.00041712   -0.00153732    0.00330482
     atom   32 type  3   force =     0.00263668   -0.00300661    0.00251960
     atom   33 type  3   force =    -0.00416032    0.00509274    0.00331570
     atom   34 type  3   force =     0.00013991    0.00222745    0.00368041
     atom   35 type  3   force =     0.00405087    0.00166321    0.00277766
     atom   36 type  3   force =    -0.00088904   -0.00415133    0.01067795
     atom   37 type  3   force =    -0.00140914   -0.00263632    0.01319978
     atom   38 type  3   force =     0.00230159   -0.00403876    0.01349649
     atom   39 type  3   force =     0.00017737    0.00091956    0.01023554
     atom   40 type  3   force =    -0.00071895    0.00219179    0.01249744
     atom   41 type  3   force =     0.00054956   -0.00054849    0.01415271
     atom   42 type  3   force =     0.00077453    0.00320519    0.00926679
     atom   43 type  3   force =    -0.00246865    0.00309019    0.01292642
     atom   44 type  3   force =     0.00168235    0.00194930    0.01345274
     atom   45 type  3   force =     0.00045696    0.00045317    0.00297943
     atom   46 type  3   force =    -0.00002263   -0.00014586    0.00473394
     atom   47 type  3   force =    -0.00041805    0.00128743    0.00360405
     atom   48 type  3   force =    -0.00036664   -0.00282246    0.00445550
     atom   49 type  3   force =     0.00102622   -0.00259360    0.00529046
     atom   50 type  3   force =    -0.00069633   -0.00190866    0.00444985
     atom   51 type  3   force =     0.00051819    0.00201588    0.00436483
     atom   52 type  3   force =     0.00075184    0.00182343    0.00535708
     atom   53 type  3   force =    -0.00129244    0.00207779    0.00578426
     atom   54 type  2   force =     0.00007368    0.00006298   -0.00104894
     atom   55 type  2   force =    -0.00000953   -0.00017622   -0.00112837
     atom   56 type  2   force =    -0.00002825   -0.00017433   -0.00077000
     atom   57 type  2   force =    -0.00023848    0.00027383   -0.00167752
     atom   58 type  2   force =    -0.00024752    0.00007206   -0.00091460
     atom   59 type  2   force =     0.00009265    0.00011789   -0.00099056
     atom   60 type  2   force =     0.00000249    0.00005644   -0.00080972
     atom   61 type  2   force =    -0.00008046   -0.00006411   -0.00076773
     atom   62 type  2   force =    -0.00001111   -0.00002937   -0.00081770
     atom   63 type  2   force =    -0.00002466    0.00000892   -0.00078949
     atom   64 type  2   force =     0.00006630   -0.00001315   -0.00077420
     atom   65 type  2   force =    -0.00004247    0.00008444   -0.00081757

     Total force =     0.097899     Total SCF correction =     0.044167
     SCF correction compared to forces is large: reduce conv_thr to get better values


     Computing stress (Cartesian axis) and pressure


     negative rho (up, down):  4.478E-05 4.476E-05


     -----------------------------------------------
     Non-local corr. energy    =      11.39078661 Ry
     -----------------------------------------------



 %%%%%%%%%%%%%%%%%%%%%%%%%%%%%%%%%%%%%%%%%%%%%%%%%%%%%%%%%%%%%%%%%%%%%%%%%%%%%%
     Error in routine stres_vdW_DF (1):
     vdW stress not implemented for nspin > 1
 %%%%%%%%%%%%%%%%%%%%%%%%%%%%%%%%%%%%%%%%%%%%%%%%%%%%%%%%%%%%%%%%%%%%%%%%%%%%%%

     stopping ...

 %%%%%%%%%%%%%%%%%%%%%%%%%%%%%%%%%%%%%%%%%%%%%%%%%%%%%%%%%%%%%%%%%%%%%%%%%%%%%%
     Error in routine stres_vdW_DF (1):
     vdW stress not implemented for nspin > 1
 %%%%%%%%%%%%%%%%%%%%%%%%%%%%%%%%%%%%%%%%%%%%%%%%%%%%%%%%%%%%%%%%%%%%%%%%%%%%%%

     stopping ...

 %%%%%%%%%%%%%%%%%%%%%%%%%%%%%%%%%%%%%%%%%%%%%%%%%%%%%%%%%%%%%%%%%%%%%%%%%%%%%%
     Error in routine stres_vdW_DF (1):
     vdW stress not implemented for nspin > 1
 %%%%%%%%%%%%%%%%%%%%%%%%%%%%%%%%%%%%%%%%%%%%%%%%%%%%%%%%%%%%%%%%%%%%%%%%%%%%%%

     stopping ...

 %%%%%%%%%%%%%%%%%%%%%%%%%%%%%%%%%%%%%%%%%%%%%%%%%%%%%%%%%%%%%%%%%%%%%%%%%%%%%%
     Error in routine stres_vdW_DF (1):
     vdW stress not implemented for nspin > 1

 %%%%%%%%%%%%%%%%%%%%%%%%%%%%%%%%%%%%%%%%%%%%%%%%%%%%%%%%%%%%%%%%%%%%%%%%%%%%%%
     Error in routine stres_vdW_DF (1):
     vdW stress not implemented for nspin > 1
 %%%%%%%%%%%%%%%%%%%%%%%%%%%%%%%%%%%%%%%%%%%%%%%%%%%%%%%%%%%%%%%%%%%%%%%%%%%%%%

     stopping ...

 %%%%%%%%%%%%%%%%%%%%%%%%%%%%%%%%%%%%%%%%%%%%%%%%%%%%%%%%%%%%%%%%%%%%%%%%%%%%%%
     Error in routine stres_vdW_DF (1):
     vdW stress not implemented for nspin > 1

 %%%%%%%%%%%%%%%%%%%%%%%%%%%%%%%%%%%%%%%%%%%%%%%%%%%%%%%%%%%%%%%%%%%%%%%%%%%%%%
     Error in routine stres_vdW_DF (1):
     vdW stress not implemented for nspin > 1
 %%%%%%%%%%%%%%%%%%%%%%%%%%%%%%%%%%%%%%%%%%%%%%%%%%%%%%%%%%%%%%%%%%%%%%%%%%%%%%

     stopping ...

 %%%%%%%%%%%%%%%%%%%%%%%%%%%%%%%%%%%%%%%%%%%%%%%%%%%%%%%%%%%%%%%%%%%%%%%%%%%%%%
     Error in routine stres_vdW_DF (1):
     vdW stress not implemented for nspin > 1
 %%%%%%%%%%%%%%%%%%%%%%%%%%%%%%%%%%%%%%%%%%%%%%%%%%%%%%%%%%%%%%%%%%%%%%%%%%%%%%

     stopping ...

 %%%%%%%%%%%%%%%%%%%%%%%%%%%%%%%%%%%%%%%%%%%%%%%%%%%%%%%%%%%%%%%%%%%%%%%%%%%%%%
     Error in routine stres_vdW_DF (1):
     vdW stress not implemented for nspin > 1
 %%%%%%%%%%%%%%%%%%%%%%%%%%%%%%%%%%%%%%%%%%%%%%%%%%%%%%%%%%%%%%%%%%%%%%%%%%%%%%

     stopping ...

 %%%%%%%%%%%%%%%%%%%%%%%%%%%%%%%%%%%%%%%%%%%%%%%%%%%%%%%%%%%%%%%%%%%%%%%%%%%%%%
     Error in routine stres_vdW_DF (1):
     vdW stress not implemented for nspin > 1
 %%%%%%%%%%%%%%%%%%%%%%%%%%%%%%%%%%%%%%%%%%%%%%%%%%%%%%%%%%%%%%%%%%%%%%%%%%%%%%

     stopping ...

 %%%%%%%%%%%%%%%%%%%%%%%%%%%%%%%%%%%%%%%%%%%%%%%%%%%%%%%%%%%%%%%%%%%%%%%%%%%%%%
     Error in routine stres_vdW_DF (1):
     vdW stress not implemented for nspin > 1
 %%%%%%%%%%%%%%%%%%%%%%%%%%%%%%%%%%%%%%%%%%%%%%%%%%%%%%%%%%%%%%%%%%%%%%%%%%%%%%

     stopping ...

 %%%%%%%%%%%%%%%%%%%%%%%%%%%%%%%%%%%%%%%%%%%%%%%%%%%%%%%%%%%%%%%%%%%%%%%%%%%%%%
     Error in routine stres_vdW_DF (1):
     vdW stress not implemented for nspin > 1
 %%%%%%%%%%%%%%%%%%%%%%%%%%%%%%%%%%%%%%%%%%%%%%%%%%%%%%%%%%%%%%%%%%%%%%%%%%%%%%

     stopping ...

 %%%%%%%%%%%%%%%%%%%%%%%%%%%%%%%%%%%%%%%%%%%%%%%%%%%%%%%%%%%%%%%%%%%%%%%%%%%%%%
     Error in routine stres_vdW_DF (1):
     vdW stress not implemented for nspin > 1
 %%%%%%%%%%%%%%%%%%%%%%%%%%%%%%%%%%%%%%%%%%%%%%%%%%%%%%%%%%%%%%%%%%%%%%%%%%%%%%

     stopping ...

 %%%%%%%%%%%%%%%%%%%%%%%%%%%%%%%%%%%%%%%%%%%%%%%%%%%%%%%%%%%%%%%%%%%%%%%%%%%%%%
     Error in routine stres_vdW_DF (1):
     vdW stress not implemented for nspin > 1
 %%%%%%%%%%%%%%%%%%%%%%%%%%%%%%%%%%%%%%%%%%%%%%%%%%%%%%%%%%%%%%%%%%%%%%%%%%%%%%

     stopping ...

 %%%%%%%%%%%%%%%%%%%%%%%%%%%%%%%%%%%%%%%%%%%%%%%%%%%%%%%%%%%%%%%%%%%%%%%%%%%%%%
     Error in routine stres_vdW_DF (1):
     vdW stress not implemented for nspin > 1
 %%%%%%%%%%%%%%%%%%%%%%%%%%%%%%%%%%%%%%%%%%%%%%%%%%%%%%%%%%%%%%%%%%%%%%%%%%%%%%

     stopping ...

 %%%%%%%%%%%%%%%%%%%%%%%%%%%%%%%%%%%%%%%%%%%%%%%%%%%%%%%%%%%%%%%%%%%%%%%%%%%%%%
     Error in routine stres_vdW_DF (1):
     vdW stress not implemented for nspin > 1
 %%%%%%%%%%%%%%%%%%%%%%%%%%%%%%%%%%%%%%%%%%%%%%%%%%%%%%%%%%%%%%%%%%%%%%%%%%%%%%

     stopping ...

 %%%%%%%%%%%%%%%%%%%%%%%%%%%%%%%%%%%%%%%%%%%%%%%%%%%%%%%%%%%%%%%%%%%%%%%%%%%%%%
     Error in routine stres_vdW_DF (1):
     vdW stress not implemented for nspin > 1
 %%%%%%%%%%%%%%%%%%%%%%%%%%%%%%%%%%%%%%%%%%%%%%%%%%%%%%%%%%%%%%%%%%%%%%%%%%%%%%

     stopping ...

 %%%%%%%%%%%%%%%%%%%%%%%%%%%%%%%%%%%%%%%%%%%%%%%%%%%%%%%%%%%%%%%%%%%%%%%%%%%%%%
     Error in routine stres_vdW_DF (1):
     vdW stress not implemented for nspin > 1
 %%%%%%%%%%%%%%%%%%%%%%%%%%%%%%%%%%%%%%%%%%%%%%%%%%%%%%%%%%%%%%%%%%%%%%%%%%%%%%

     stopping ...
 %%%%%%%%%%%%%%%%%%%%%%%%%%%%%%%%%%%%%%%%%%%%%%%%%%%%%%%%%%%%%%%%%%%%%%%%%%%%%%
     Error in routine stres_vdW_DF (1):
     vdW stress not implemented for nspin > 1
 %%%%%%%%%%%%%%%%%%%%%%%%%%%%%%%%%%%%%%%%%%%%%%%%%%%%%%%%%%%%%%%%%%%%%%%%%%%%%%

     stopping ...

 %%%%%%%%%%%%%%%%%%%%%%%%%%%%%%%%%%%%%%%%%%%%%%%%%%%%%%%%%%%%%%%%%%%%%%%%%%%%%%
     Error in routine stres_vdW_DF (1):
     vdW stress not implemented for nspin > 1
 %%%%%%%%%%%%%%%%%%%%%%%%%%%%%%%%%%%%%%%%%%%%%%%%%%%%%%%%%%%%%%%%%%%%%%%%%%%%%%

     stopping ...

 %%%%%%%%%%%%%%%%%%%%%%%%%%%%%%%%%%%%%%%%%%%%%%%%%%%%%%%%%%%%%%%%%%%%%%%%%%%%%%
     Error in routine stres_vdW_DF (1):
     vdW stress not implemented for nspin > 1
 %%%%%%%%%%%%%%%%%%%%%%%%%%%%%%%%%%%%%%%%%%%%%%%%%%%%%%%%%%%%%%%%%%%%%%%%%%%%%%

     stopping ...

 %%%%%%%%%%%%%%%%%%%%%%%%%%%%%%%%%%%%%%%%%%%%%%%%%%%%%%%%%%%%%%%%%%%%%%%%%%%%%%
     Error in routine stres_vdW_DF (1):
     vdW stress not implemented for nspin > 1
 %%%%%%%%%%%%%%%%%%%%%%%%%%%%%%%%%%%%%%%%%%%%%%%%%%%%%%%%%%%%%%%%%%%%%%%%%%%%%%

     stopping ...

 %%%%%%%%%%%%%%%%%%%%%%%%%%%%%%%%%%%%%%%%%%%%%%%%%%%%%%%%%%%%%%%%%%%%%%%%%%%%%%
     Error in routine stres_vdW_DF (1):
     vdW stress not implemented for nspin > 1
 %%%%%%%%%%%%%%%%%%%%%%%%%%%%%%%%%%%%%%%%%%%%%%%%%%%%%%%%%%%%%%%%%%%%%%%%%%%%%%

     stopping ...

 %%%%%%%%%%%%%%%%%%%%%%%%%%%%%%%%%%%%%%%%%%%%%%%%%%%%%%%%%%%%%%%%%%%%%%%%%%%%%%
     Error in routine stres_vdW_DF (1):
     vdW stress not implemented for nspin > 1
 %%%%%%%%%%%%%%%%%%%%%%%%%%%%%%%%%%%%%%%%%%%%%%%%%%%%%%%%%%%%%%%%%%%%%%%%%%%%%%

     stopping ...

 %%%%%%%%%%%%%%%%%%%%%%%%%%%%%%%%%%%%%%%%%%%%%%%%%%%%%%%%%%%%%%%%%%%%%%%%%%%%%%
     Error in routine stres_vdW_DF (1):
     vdW stress not implemented for nspin > 1
 %%%%%%%%%%%%%%%%%%%%%%%%%%%%%%%%%%%%%%%%%%%%%%%%%%%%%%%%%%%%%%%%%%%%%%%%%%%%%%

     stopping ...

 %%%%%%%%%%%%%%%%%%%%%%%%%%%%%%%%%%%%%%%%%%%%%%%%%%%%%%%%%%%%%%%%%%%%%%%%%%%%%%
     Error in routine stres_vdW_DF (1):
     vdW stress not implemented for nspin > 1
 %%%%%%%%%%%%%%%%%%%%%%%%%%%%%%%%%%%%%%%%%%%%%%%%%%%%%%%%%%%%%%%%%%%%%%%%%%%%%%

     stopping ...

 %%%%%%%%%%%%%%%%%%%%%%%%%%%%%%%%%%%%%%%%%%%%%%%%%%%%%%%%%%%%%%%%%%%%%%%%%%%%%%
     Error in routine stres_vdW_DF (1):
     vdW stress not implemented for nspin > 1
 %%%%%%%%%%%%%%%%%%%%%%%%%%%%%%%%%%%%%%%%%%%%%%%%%%%%%%%%%%%%%%%%%%%%%%%%%%%%%%

     stopping ...

 %%%%%%%%%%%%%%%%%%%%%%%%%%%%%%%%%%%%%%%%%%%%%%%%%%%%%%%%%%%%%%%%%%%%%%%%%%%%%%
     Error in routine stres_vdW_DF (1):
     vdW stress not implemented for nspin > 1
 %%%%%%%%%%%%%%%%%%%%%%%%%%%%%%%%%%%%%%%%%%%%%%%%%%%%%%%%%%%%%%%%%%%%%%%%%%%%%%

     stopping ...
 %%%%%%%%%%%%%%%%%%%%%%%%%%%%%%%%%%%%%%%%%%%%%%%%%%%%%%%%%%%%%%%%%%%%%%%%%%%%%%

     stopping ...
 %%%%%%%%%%%%%%%%%%%%%%%%%%%%%%%%%%%%%%%%%%%%%%%%%%%%%%%%%%%%%%%%%%%%%%%%%%%%%%

     stopping ...

 %%%%%%%%%%%%%%%%%%%%%%%%%%%%%%%%%%%%%%%%%%%%%%%%%%%%%%%%%%%%%%%%%%%%%%%%%%%%%%
     Error in routine stres_vdW_DF (1):
     vdW stress not implemented for nspin > 1
 %%%%%%%%%%%%%%%%%%%%%%%%%%%%%%%%%%%%%%%%%%%%%%%%%%%%%%%%%%%%%%%%%%%%%%%%%%%%%%

     stopping ...

 %%%%%%%%%%%%%%%%%%%%%%%%%%%%%%%%%%%%%%%%%%%%%%%%%%%%%%%%%%%%%%%%%%%%%%%%%%%%%%
     Error in routine stres_vdW_DF (1):
     vdW stress not implemented for nspin > 1
 %%%%%%%%%%%%%%%%%%%%%%%%%%%%%%%%%%%%%%%%%%%%%%%%%%%%%%%%%%%%%%%%%%%%%%%%%%%%%%

     stopping ...

 %%%%%%%%%%%%%%%%%%%%%%%%%%%%%%%%%%%%%%%%%%%%%%%%%%%%%%%%%%%%%%%%%%%%%%%%%%%%%%
     Error in routine stres_vdW_DF (1):
     vdW stress not implemented for nspin > 1
 %%%%%%%%%%%%%%%%%%%%%%%%%%%%%%%%%%%%%%%%%%%%%%%%%%%%%%%%%%%%%%%%%%%%%%%%%%%%%%

     stopping ...


 %%%%%%%%%%%%%%%%%%%%%%%%%%%%%%%%%%%%%%%%%%%%%%%%%%%%%%%%%%%%%%%%%%%%%%%%%%%%%%
     Error in routine stres_vdW_DF (1):
     vdW stress not implemented for nspin > 1
 %%%%%%%%%%%%%%%%%%%%%%%%%%%%%%%%%%%%%%%%%%%%%%%%%%%%%%%%%%%%%%%%%%%%%%%%%%%%%%

     stopping ...

 %%%%%%%%%%%%%%%%%%%%%%%%%%%%%%%%%%%%%%%%%%%%%%%%%%%%%%%%%%%%%%%%%%%%%%%%%%%%%%
     Error in routine stres_vdW_DF (1):
     vdW stress not implemented for nspin > 1
 %%%%%%%%%%%%%%%%%%%%%%%%%%%%%%%%%%%%%%%%%%%%%%%%%%%%%%%%%%%%%%%%%%%%%%%%%%%%%%

     stopping ...

 %%%%%%%%%%%%%%%%%%%%%%%%%%%%%%%%%%%%%%%%%%%%%%%%%%%%%%%%%%%%%%%%%%%%%%%%%%%%%%
     Error in routine stres_vdW_DF (1):
     vdW stress not implemented for nspin > 1
 %%%%%%%%%%%%%%%%%%%%%%%%%%%%%%%%%%%%%%%%%%%%%%%%%%%%%%%%%%%%%%%%%%%%%%%%%%%%%%

     stopping ...

 %%%%%%%%%%%%%%%%%%%%%%%%%%%%%%%%%%%%%%%%%%%%%%%%%%%%%%%%%%%%%%%%%%%%%%%%%%%%%%
     Error in routine stres_vdW_DF (1):
     vdW stress not implemented for nspin > 1
 %%%%%%%%%%%%%%%%%%%%%%%%%%%%%%%%%%%%%%%%%%%%%%%%%%%%%%%%%%%%%%%%%%%%%%%%%%%%%%

     stopping ...
 %%%%%%%%%%%%%%%%%%%%%%%%%%%%%%%%%%%%%%%%%%%%%%%%%%%%%%%%%%%%%%%%%%%%%%%%%%%%%%
     Error in routine stres_vdW_DF (1):
     vdW stress not implemented for nspin > 1
 %%%%%%%%%%%%%%%%%%%%%%%%%%%%%%%%%%%%%%%%%%%%%%%%%%%%%%%%%%%%%%%%%%%%%%%%%%%%%%

     stopping ...
